 Gaussian 16, Revision A.03,
 Gaussian 16:  ES64L-G16RevA.03 25-Dec-2016

 --------------------------
 # freq 6-311++g(d,p) m062x
 --------------------------

 -------------------
 Title Card Required
 -------------------
 Symbolic Z-matrix:
 Charge =  0 Multiplicity = 2

                         Standard orientation:
 ---------------------------------------------------------------------
 Center     Atomic      Atomic             Coordinates (Angstroms)
 Number     Number       Type             X           Y           Z
 ---------------------------------------------------------------------
      1          8           0        4.558293   -0.256201    0.320167
      2          1           0        4.604646    0.646264   -0.031920
      3          6           0        2.263137   -0.312025   -0.077043
      4          1           0        3.575405   -0.626317   -0.047375
      5          6           0        1.104284    0.025338   -0.106121
      6          6           0       -0.303601    0.403101   -0.189131
      7          8           0       -0.689912    1.531759   -0.062346
      8          8           0       -1.073161   -0.656784   -0.424593
      9          6           0       -2.492012   -0.405764   -0.509669
     10          6           0       -3.106595   -0.283609    0.870658
     11          1           0       -2.879191   -1.268218   -1.048978
     12          1           0       -2.651850    0.496497   -1.101017
     13          1           0       -4.188465   -0.169599    0.779389
     14          1           0       -2.901625   -1.179142    1.458987
     15          1           0       -2.711952    0.588081    1.392917
 ---------------------------------------------------------------------

 SCF Done:  E(UM062X) =  -420.174933214     A.U. after   22 cycles

 The electronic state is 2-A.
 Alpha  occ. eigenvalues --  -19.70039 -19.68736 -19.63671 -10.71153 -10.60943
 Alpha  occ. eigenvalues --  -10.59504 -10.57549 -10.54077  -1.26129  -1.18847
 Alpha  occ. eigenvalues --   -1.16851  -0.90858  -0.87399  -0.78361  -0.71063
 Alpha  occ. eigenvalues --   -0.67488  -0.64458  -0.58874  -0.57243  -0.56785
 Alpha  occ. eigenvalues --   -0.54078  -0.49734  -0.47107  -0.46564  -0.45752
 Alpha  occ. eigenvalues --   -0.43223  -0.42292  -0.39874  -0.38945  -0.37826
 Alpha  occ. eigenvalues --   -0.36747
 Alpha virt. eigenvalues --   -0.01992  -0.00502   0.00062   0.01711   0.02316
 Alpha virt. eigenvalues --    0.02701   0.03715   0.05054   0.05373   0.06283
 Alpha virt. eigenvalues --    0.06953   0.07823   0.08216   0.08729   0.10222

  Beta  occ. eigenvalues --  -19.68979 -19.68744 -19.63665 -10.71138 -10.60944
  Beta  occ. eigenvalues --  -10.58631 -10.57450 -10.54077  -1.26129  -1.16844
  Beta  occ. eigenvalues --   -1.14773  -0.90417  -0.86526  -0.77903  -0.70209
  Beta  occ. eigenvalues --   -0.64690  -0.63052  -0.58872  -0.56869  -0.54209
  Beta  occ. eigenvalues --   -0.51782  -0.49711  -0.47073  -0.45704  -0.43518
  Beta  occ. eigenvalues --   -0.42366  -0.39512  -0.38942  -0.36719  -0.36099
  Beta virt. eigenvalues --   -0.16674  -0.01324  -0.00228   0.00258   0.01725
  Beta virt. eigenvalues --    0.02338   0.02872   0.03871   0.05369   0.05671
  Beta virt. eigenvalues --    0.06567   0.07035   0.07843   0.08295   0.08781

 Mulliken charges and spin densities:
               1          2
     1  O   -0.287805   0.523012
     2  H    0.269579  -0.012565
     3  C   -0.647799   0.538033
     4  H    0.434273  -0.037414
     5  C    1.115569   0.053079
     6  C   -0.910040  -0.064287
     7  O   -0.209130   0.001376
     8  O    0.010847   0.000083
     9  C   -0.281451  -0.001328
    10  C   -0.403123   0.000235
    11  H    0.197636  -0.000131
    12  H    0.193697   0.000099
    13  H    0.165819  -0.000017
    14  H    0.167466  -0.000008
    15  H    0.184462  -0.000166
 Sum of Mulliken charges =  -0.00000   1.00000

 Dipole moment (field-independent basis, Debye):
    X=             -0.9716    Y=             -0.3008    Z=             -0.8928  Tot=              1.3534
 Quadrupole moment (field-independent basis, Debye-Ang):
   XX=            -36.2043   YY=            -52.1255   ZZ=            -48.0951
   XY=              8.0164   XZ=             -2.9376   YZ=             -0.3752

  Exact polarizability: 138.507  -7.278  61.077   2.769   0.507  50.573
 Approx polarizability: 123.497 -12.873  79.741   3.890   1.514  57.716

 ******    1 imaginary frequencies (negative Signs) ******

                      1                      2                      3
                      A                      A                      A
 Frequencies --  -1383.2184                17.8659                55.3145
 Red. masses --      1.0294                 3.5590                 6.7590
 Frc consts  --      1.1604                 0.0007                 0.0122
 IR Inten    --    552.2997                12.7460                 1.5062

                      4                      5                      6
                      A                      A                      A
 Frequencies --     82.2532               116.8454               153.0183
 Red. masses --      2.9926                 3.3516                 3.5933
 Frc consts  --      0.0119                 0.0270                 0.0496
 IR Inten    --      5.7568                 1.8217                16.6445

                      7                      8                      9
                      A                      A                      A
 Frequencies --    178.3913               224.4964               267.2657
 Red. masses --      1.5570                 1.2908                 4.4397
 Frc consts  --      0.0292                 0.0383                 0.1869
 IR Inten    --     73.9818                 3.0680                12.6256

                     10                     11                     12
                      A                      A                      A
 Frequencies --    335.1255               356.2772               425.6706
 Red. masses --      2.8733                 7.5474                 3.7806
 Frc consts  --      0.1901                 0.5644                 0.4036
 IR Inten    --     10.1843                 3.4177                 2.4288

                     13                     14                     15
                      A                      A                      A
 Frequencies --    563.9287               610.5172               627.6675
 Red. masses --      5.7056                 5.5691                 1.1295
 Frc consts  --      1.0691                 1.2230                 0.2622
 IR Inten    --     11.5062                26.4814               174.6307

                     16                     17                     18
                      A                      A                      A
 Frequencies --    777.4723               798.1734               893.5409
 Red. masses --      9.3701                 1.2272                 3.1325
 Frc consts  --      3.3371                 0.4606                 1.4736
 IR Inten    --     20.5190                 3.2050                 8.6273

                     19                     20                     21
                      A                      A                      A
 Frequencies --    925.2312              1071.0211              1116.2357
 Red. masses --      2.6311                 3.1949                 1.4540
 Frc consts  --      1.3270                 2.1592                 1.0674
 IR Inten    --      2.6172                32.2850                30.1976

                     22                     23                     24
                      A                      A                      A
 Frequencies --   1129.0131              1202.8772              1285.5783
 Red. masses --      2.0075                 1.7784                 4.2287
 Frc consts  --      1.5077                 1.5161                 4.1177
 IR Inten    --     47.1088                 5.7784               779.7969

                     25                     26                     27
                      A                      A                      A
 Frequencies --   1346.8388              1401.0691              1430.5870
 Red. masses --      1.2089                 1.2730                 1.3771
 Frc consts  --      1.2921                 1.4723                 1.6605
 IR Inten    --    103.4486                32.8465                 9.3320

                     28                     29                     30
                      A                      A                      A
 Frequencies --   1492.6300              1501.5154              1513.9038
 Red. masses --      1.0412                 1.0678                 1.0775
 Frc consts  --      1.3668                 1.4184                 1.4550
 IR Inten    --     12.1935                 3.9074                15.4106

                     31                     32                     33
                      A                      A                      A
 Frequencies --   1546.7346              1837.5133              2280.4486
 Red. masses --      1.0755                12.1060                10.5433
 Frc consts  --      1.5160                24.0831                32.3047
 IR Inten    --    346.7298               356.5267                35.7417

                     34                     35                     36
                      A                      A                      A
 Frequencies --   3075.9747              3108.3442              3151.4693
 Red. masses --      1.0354                 1.0608                 1.1014
 Frc consts  --      5.7717                 6.0385                 6.4452
 IR Inten    --     10.4096                18.5234                15.4042

                     37                     38                     39
                      A                      A                      A
 Frequencies --   3155.3046              3176.0456              3822.5777
 Red. masses --      1.1049                 1.1074                 1.0666
 Frc consts  --      6.4810                 6.5815                 9.1827
 IR Inten    --      2.0517                14.8341               143.2533

 - Thermochemistry -
 -------------------
 Temperature   298.150 Kelvin.  Pressure   1.00000 Atm.
 Atom     1 has atomic number  8 and mass  15.99491

 Molecular mass:   115.03952 amu.
 Principal axes and moments of inertia in atomic units:
                           1         2         3
     Eigenvalues --   286.966002618.509502731.10341
           X            0.99993   0.00857  -0.00838
           Y           -0.00865   0.99992  -0.00962
           Z            0.00830   0.00969   0.99992
 This molecule is an asymmetric top.
 Rotational symmetry number  1.
 Rotational temperatures (Kelvin)      0.30183     0.03308     0.03171
 Rotational constants (GHZ):           6.28904     0.68922     0.66081
    1 imaginary frequencies ignored.
 Zero-point vibrational energy     281449.8 (Joules/Mol)
                                   67.26812 (Kcal/Mol)
 Warning -- explicit consideration of  13 degrees of freedom as
           vibrations may cause significant error
 Vibrational temperatures:     25.71    79.59   118.34   168.11   220.16
          (Kelvin)            256.67   323.00   384.54   482.17   512.60
                              612.45   811.37   878.40   903.07  1118.61
                             1148.39  1285.61  1331.20  1540.96  1606.01
                             1624.40  1730.67  1849.66  1937.80  2015.83
                             2058.30  2147.56  2160.35  2178.17  2225.41
                             2643.77  3281.06  4425.64  4472.21  4534.26
                             4539.78  4569.62  5499.84

 Zero-point correction=                           0.107199 (Hartree/Particle)
 Thermal correction to Energy=                    0.117362
 Thermal correction to Enthalpy=                  0.118307
 Thermal correction to Gibbs Free Energy=         0.069243
 Sum of electronic and zero-point Energies=           -420.067735
 Sum of electronic and thermal Energies=              -420.057571
 Sum of electronic and thermal Enthalpies=            -420.056627
 Sum of electronic and thermal Free Energies=         -420.105690

                     E (Thermal)             CV                S
                      KCal/Mol        Cal/Mol-Kelvin    Cal/Mol-Kelvin
 Total                   73.646             32.944            103.262
 Electronic               0.000              0.000              1.377
 Translational            0.889              2.981             40.136
 Rotational               0.889              2.981             29.108
 Vibrational             71.869             26.982             32.641
 Vibration     1          0.593              1.986              6.858
 Vibration     2          0.596              1.975              4.618
 Vibration     3          0.600              1.961              3.836
 Vibration     4          0.608              1.935              3.152
 Vibration     5          0.619              1.899              2.634
 Vibration     6          0.629              1.869              2.345
 Vibration     7          0.649              1.804              1.923
 Vibration     8          0.672              1.733              1.614
 Vibration     9          0.716              1.605              1.235
 Vibration    10          0.732              1.562              1.138
 Vibration    11          0.787              1.414              0.873
 Vibration    12          0.920              1.109              0.516
 Vibration    13          0.970              1.010              0.432

 1\1\GINC-AJ\Freq\UM062X\6-311++G(d,p)\C5H7O3(2)\AAYUSH\16-Aug-2025\0\\
 # freq 6-311++g(d,p) m062x\\Title Card Required\\0,2\O,4.496774,-0.267
 748,0.3327\H,4.54288,0.634637,-0.019623\C,2.201669,-0.324382,-0.064687
 \H,3.514031,-0.638263,-0.034826\C,1.042715,0.012618,-0.093951\C,-0.365
 279,0.389927,-0.177179\O,-0.751947,1.5185,-0.050726\O,-1.134494,-0.670
 257,-0.412424\C,-2.553415,-0.419695,-0.497685\C,-3.168151,-0.297362,0.
 882558\H,-2.940284,-1.28241,-1.036798\H,-2.71348,0.48236,-1.089286\H,-
 4.250048,-0.183708,0.791168\H,-2.962955,-1.192675,1.471142\H,-2.773819

 Normal termination of Gaussian 16 at Sat Aug 16 14:25:23 2025.
