 Gaussian 16, Revision A.03,
 Gaussian 16:  ES64L-G16RevA.03 25-Dec-2016

 --------------------------
 # ccsd(t)/6-311++g(d,p) sp
 --------------------------

 -------------------
 Title Card Required
 -------------------
 Symbolic Z-matrix:
 Charge =  0 Multiplicity = 2

                         Standard orientation:
 ---------------------------------------------------------------------
 Center     Atomic      Atomic             Coordinates (Angstroms)
 Number     Number       Type             X           Y           Z
 ---------------------------------------------------------------------
      1          8           0        4.562802   -0.256740    0.320594
      2          1           0        4.610391    0.649543   -0.028446
      3          6           0        2.266521   -0.313738   -0.077507
      4          1           0        3.443636   -0.622911   -0.052215
      5          6           0        1.107532    0.023365   -0.106567
      6          6           0       -0.301270    0.403153   -0.188984
      7          8           0       -0.688423    1.531884   -0.063291
      8          8           0       -1.072283   -0.656756   -0.424104
      9          6           0       -2.490946   -0.405258   -0.509271
     10          6           0       -3.105607   -0.282068    0.870985
     11          1           0       -2.878596   -1.267907   -1.048023
     12          1           0       -2.650674    0.496721   -1.101097
     13          1           0       -4.187471   -0.167751    0.779727
     14          1           0       -2.900878   -1.177308    1.459867
     15          1           0       -2.710559    0.589792    1.392645
 ---------------------------------------------------------------------

 SCF Done:  E(UHF) =  -417.950212921     A.U. after   44 cycles
 E2 =    -0.1270087212D+01 EUMP2 =    -0.41922030013343D+03
 CCSD(T)= -0.41933057266D+03

 The electronic state is 2-A.
 Alpha  occ. eigenvalues --  -20.68078 -20.61155 -20.55626 -11.41359 -11.29636
 Alpha  occ. eigenvalues --  -11.26868 -11.24444 -11.22505  -1.47933  -1.45488
 Alpha  occ. eigenvalues --   -1.37612  -1.06953  -1.03809  -0.92388  -0.84658
 Alpha  occ. eigenvalues --   -0.81190  -0.75700  -0.72718  -0.69220  -0.66135
 Alpha  occ. eigenvalues --   -0.63363  -0.61824  -0.58329  -0.57080  -0.54508
 Alpha  occ. eigenvalues --   -0.53940  -0.50453  -0.47631  -0.46063  -0.42310
 Alpha  occ. eigenvalues --   -0.42090
 Alpha virt. eigenvalues --    0.03785   0.04425   0.06033   0.06554   0.07178
 Alpha virt. eigenvalues --    0.08343   0.09402   0.09601   0.11730   0.12701
 Alpha virt. eigenvalues --    0.13678   0.13898   0.14889   0.15650   0.16546

  Beta  occ. eigenvalues --  -20.64319 -20.61169 -20.55973 -11.41105 -11.29640
  Beta  occ. eigenvalues --  -11.25537 -11.24451 -11.22506  -1.48107  -1.38173
  Beta  occ. eigenvalues --   -1.31709  -1.07106  -1.03002  -0.91434  -0.82821
  Beta  occ. eigenvalues --   -0.76019  -0.73724  -0.69549  -0.66447  -0.63946
  Beta  occ. eigenvalues --   -0.62487  -0.58449  -0.55340  -0.55152  -0.54060
  Beta  occ. eigenvalues --   -0.50542  -0.48242  -0.46954  -0.41593  -0.41291
  Beta virt. eigenvalues --    0.01269   0.04356   0.05519   0.06029   0.06586
  Beta virt. eigenvalues --    0.07239   0.08408   0.09424   0.10002   0.12083
  Beta virt. eigenvalues --    0.12896   0.13734   0.14176   0.15132   0.15727

 Mulliken charges and spin densities:
               1          2
     1  O   -0.179523   0.855675
     2  H    0.277229  -0.035163
     3  C   -0.703699   0.895112
     4  H    0.412976  -0.110711
     5  C    1.283188  -0.626080
     6  C   -0.986467   0.089634
     7  O   -0.287799  -0.070864
     8  O   -0.085375   0.002062
     9  C   -0.163715   0.001209
    10  C   -0.359497  -0.000460
    11  H    0.166264  -0.000137
    12  H    0.174814  -0.000016
    13  H    0.133873  -0.000071
    14  H    0.144396  -0.000098
    15  H    0.173338  -0.000090
 Sum of Mulliken charges =  -0.00000   1.00000

 Dipole moment (field-independent basis, Debye):
    X=              0.6042    Y=             -0.4427    Z=             -0.7788  Tot=              1.0805
 Quadrupole moment (field-independent basis, Debye-Ang):
   XX=            -28.1761   YY=            -52.9732   ZZ=            -48.1358
   XY=              8.1240   XZ=             -2.1207   YZ=             -0.4713

 497\PMP3-0=-419.2544491\MP4SDQ=-419.2726274\CCSD=-419.2759658\CCSD(T)=
 Normal termination of Gaussian 16 at Tue Aug 19 09:03:33 2025.
