 Gaussian 16, Revision A.03,
 Gaussian 16:  ES64L-G16RevA.03 25-Dec-2016

 -------------------
 # freq 6-31+g m062x
 -------------------

 -------------------
 Title Card Required
 -------------------
 Symbolic Z-matrix:
 Charge =  0 Multiplicity = 2

                         Standard orientation:
 ---------------------------------------------------------------------
 Center     Atomic      Atomic             Coordinates (Angstroms)
 Number     Number       Type             X           Y           Z
 ---------------------------------------------------------------------
      1          8           0        4.558362   -0.252731    0.323197
      2          1           0        4.597074    0.642184   -0.040746
      3          6           0        2.257538   -0.309587   -0.075339
      4          1           0        3.697583   -0.659875   -0.074975
      5          6           0        1.099792    0.028297   -0.104998
      6          6           0       -0.306347    0.403109   -0.189713
      7          8           0       -0.691815    1.531844   -0.063112
      8          8           0       -1.074006   -0.657353   -0.424096
      9          6           0       -2.492963   -0.407184   -0.509533
     10          6           0       -3.107558   -0.284357    0.870665
     11          1           0       -2.879544   -1.270195   -1.048304
     12          1           0       -2.653026    0.494580   -1.101572
     13          1           0       -4.189455   -0.170975    0.779165
     14          1           0       -2.902222   -1.179375    1.459629
     15          1           0       -2.713507    0.587917    1.392398
 ---------------------------------------------------------------------

 SCF Done:  E(UM062X) =  -419.917381419     A.U. after   22 cycles

 The electronic state is 2-A.
 Alpha  occ. eigenvalues --  -19.71611 -19.71227 -19.66916 -10.73598 -10.62029
 Alpha  occ. eigenvalues --  -10.62019 -10.59436 -10.54974  -1.28637  -1.20822
 Alpha  occ. eigenvalues --   -1.19264  -0.91894  -0.88425  -0.79050  -0.71677
 Alpha  occ. eigenvalues --   -0.68461  -0.64920  -0.58997  -0.57343  -0.55862
 Alpha  occ. eigenvalues --   -0.54508  -0.50040  -0.47416  -0.46471  -0.45870
 Alpha  occ. eigenvalues --   -0.43167  -0.42298  -0.40096  -0.38887  -0.38448
 Alpha  occ. eigenvalues --   -0.37316
 Alpha virt. eigenvalues --   -0.02350   0.01396   0.02088   0.03327   0.03819
 Alpha virt. eigenvalues --    0.04616   0.04852   0.06436   0.07313   0.08303
 Alpha virt. eigenvalues --    0.08786   0.09009   0.09182   0.10581   0.12347

  Beta  occ. eigenvalues --  -19.71236 -19.70679 -19.66917 -10.73577 -10.62029
  Beta  occ. eigenvalues --  -10.60990 -10.59351 -10.54974  -1.28641  -1.19272
  Beta  occ. eigenvalues --   -1.17720  -0.91299  -0.87476  -0.78607  -0.70986
  Beta  occ. eigenvalues --   -0.65475  -0.64734  -0.59014  -0.57377  -0.54657
  Beta  occ. eigenvalues --   -0.50371  -0.50022  -0.47403  -0.45822  -0.43419
  Beta  occ. eigenvalues --   -0.42460  -0.39589  -0.38883  -0.37117  -0.36546
  Beta virt. eigenvalues --   -0.17037  -0.01468   0.01745   0.02205   0.03362
  Beta virt. eigenvalues --    0.04462   0.04687   0.04927   0.06548   0.07575
  Beta virt. eigenvalues --    0.08341   0.08808   0.09044   0.09403   0.10815

 Mulliken charges and spin densities:
               1          2
     1  O   -0.554619   0.409878
     2  H    0.429880  -0.014601
     3  C    1.511812   0.291793
     4  H    0.496767  -0.033416
     5  C   -0.543513   0.288788
     6  C   -1.093922   0.060162
     7  O   -0.349598  -0.001528
     8  O   -0.206533  -0.000940
     9  C   -0.254112   0.000571
    10  C   -0.559931  -0.000522
    11  H    0.222317  -0.000042
    12  H    0.233415  -0.000064
    13  H    0.209691  -0.000093
    14  H    0.221796  -0.000004
    15  H    0.236549   0.000018
 Sum of Mulliken charges =  -0.00000   1.00000

 Dipole moment (field-independent basis, Debye):
    X=             -1.2692    Y=             -0.1356    Z=             -1.2501  Tot=              1.7866
 Quadrupole moment (field-independent basis, Debye-Ang):
   XX=            -38.6370   YY=            -53.2387   ZZ=            -48.4793
   XY=              8.7318   XZ=             -4.6407   YZ=             -0.3156

  Exact polarizability: 137.138  -7.680  59.597   2.861   0.550  46.525
 Approx polarizability: 117.399 -13.764  75.306   4.057   2.148  48.004

 ******    5 imaginary frequencies (negative Signs) ******

                      1                      2                      3
                      A                      A                      A
 Frequencies --   -896.3204              -492.0877              -163.6637
 Red. masses --      1.0295                 1.0522                 2.6044
 Frc consts  --      0.4873                 0.1501                 0.0411
 IR Inten    --    187.5130               126.5544                56.4252

                      4                      5                      6
                      A                      A                      A
 Frequencies --    -71.1461               -23.0049                58.7300
 Red. masses --      6.5177                 2.9843                 4.2461
 Frc consts  --      0.0194                 0.0009                 0.0086
 IR Inten    --      3.3767                 0.5792                13.7811

                      7                      8                      9
                      A                      A                      A
 Frequencies --     96.0234               182.6845               229.6669
 Red. masses --      4.9540                 1.2793                 3.6682
 Frc consts  --      0.0269                 0.0252                 0.1140
 IR Inten    --      5.6523                 5.1877                53.1499

                     10                     11                     12
                      A                      A                      A
 Frequencies --    298.3427               314.6384               401.4466
 Red. masses --      3.0935                 3.7191                 2.3101
 Frc consts  --      0.1622                 0.2169                 0.2193
 IR Inten    --      6.1115                11.3883               122.1765

                     13                     14                     15
                      A                      A                      A
 Frequencies --    429.5208               584.1481               622.6182
 Red. masses --      3.8480                 5.0525                 8.6057
 Frc consts  --      0.4183                 1.0158                 1.9655
 IR Inten    --     40.5419                 5.4716                55.2535

                     16                     17                     18
                      A                      A                      A
 Frequencies --    798.3771               815.5159               898.8222
 Red. masses --      7.5696                 1.3379                 3.3456
 Frc consts  --      2.8427                 0.5243                 1.5925
 IR Inten    --     14.1375                 5.7160                10.7152

                     19                     20                     21
                      A                      A                      A
 Frequencies --    947.1690              1111.9487              1157.1584
 Red. masses --      2.6400                 4.2157                 2.0808
 Frc consts  --      1.3954                 3.0711                 1.6416
 IR Inten    --      2.6472                 7.6009                22.0731

                     22                     23                     24
                      A                      A                      A
 Frequencies --   1227.0884              1320.9945              1332.9984
 Red. masses --      1.7580                 1.6379                 1.3648
 Frc consts  --      1.5597                 1.6840                 1.4288
 IR Inten    --      5.7263               386.4368               147.6087

                     25                     26                     27
                      A                      A                      A
 Frequencies --   1370.9881              1442.9688              1456.2293
 Red. masses --      1.6614                 1.3670                 1.2646
 Frc consts  --      1.8399                 1.6770                 1.5801
 IR Inten    --    336.0227                47.8492                15.8213

                     28                     29                     30
                      A                      A                      A
 Frequencies --   1528.1355              1535.9439              1544.8465
 Red. masses --      1.0422                 1.0761                 1.0674
 Frc consts  --      1.4339                 1.4957                 1.5009
 IR Inten    --     14.9315                 7.8153                22.9605

                     31                     32                     33
                      A                      A                      A
 Frequencies --   1906.5248              2270.5101              2441.9593
 Red. masses --     12.4117                 2.7113                 1.5419
 Frc consts  --     26.5806                 8.2351                 5.4174
 IR Inten    --    311.3128               630.1739               323.7920

                     34                     35                     36
                      A                      A                      A
 Frequencies --   3108.2168              3138.3261              3188.3730
 Red. masses --      1.0351                 1.0602                 1.1007
 Frc consts  --      5.8918                 6.1523                 6.5928
 IR Inten    --     13.2863                20.0788                12.8272

                     37                     38                     39
                      A                      A                      A
 Frequencies --   3191.3058              3212.2820              3872.4781
 Red. masses --      1.1022                 1.1053                 1.0654
 Frc consts  --      6.6136                 6.7198                 9.4135
 IR Inten    --      7.5747                17.3532               111.5647

 - Thermochemistry -
 -------------------
 Temperature   298.150 Kelvin.  Pressure   1.00000 Atm.
 Atom     1 has atomic number  8 and mass  15.99491

 Molecular mass:   115.03952 amu.
 Principal axes and moments of inertia in atomic units:
                           1         2         3
     Eigenvalues --   287.175612621.000122733.63349
           X            0.99993   0.00825  -0.00858
           Y           -0.00833   0.99992  -0.00914
           Z            0.00851   0.00921   0.99992
 This molecule is an asymmetric top.
 Rotational symmetry number  1.
 Rotational temperatures (Kelvin)      0.30161     0.03305     0.03168
 Rotational constants (GHZ):           6.28445     0.68857     0.66020
    5 imaginary frequencies ignored.
 Zero-point vibrational energy     287325.0 (Joules/Mol)
                                   68.67231 (Kcal/Mol)
 Warning -- explicit consideration of   9 degrees of freedom as
           vibrations may cause significant error
 Vibrational temperatures:     84.50   138.16   262.84   330.44   429.25
          (Kelvin)            452.69   577.59   617.98   840.46   895.81
                             1148.69  1173.35  1293.20  1362.76  1599.85
                             1664.89  1765.51  1900.62  1917.89  1972.55
                             2076.11  2095.19  2198.65  2209.88  2222.69
                             2743.06  3266.76  3513.43  4472.03  4515.35
                             4587.36  4591.58  4621.76  5571.63

 Zero-point correction=                           0.109436 (Hartree/Particle)
 Thermal correction to Energy=                    0.117028
 Thermal correction to Enthalpy=                  0.117972
 Thermal correction to Gibbs Free Energy=         0.075568
 Sum of electronic and zero-point Energies=           -419.807945
 Sum of electronic and thermal Energies=              -419.800353
 Sum of electronic and thermal Enthalpies=            -419.799409
 Sum of electronic and thermal Free Energies=         -419.841813

                     E (Thermal)             CV                S
                      KCal/Mol        Cal/Mol-Kelvin    Cal/Mol-Kelvin
 Total                   73.436             25.491             89.247
 Electronic               0.000              0.000              1.377
 Translational            0.889              2.981             40.136
 Rotational               0.889              2.981             29.110
 Vibrational             71.659             19.530             18.623
 Vibration     1          0.596              1.974              4.499
 Vibration     2          0.603              1.952              3.533
 Vibration     3          0.630              1.863              2.301
 Vibration     4          0.652              1.796              1.882
 Vibration     5          0.691              1.677              1.426
 Vibration     6          0.702              1.646              1.338
 Vibration     7          0.767              1.467              0.957
 Vibration     8          0.791              1.406              0.860
 Vibration     9          0.941              1.066              0.478

 Normal termination of Gaussian 16 at Fri Jun 20 12:28:33 2025.
