 Gaussian 16, Revision A.03,
 Gaussian 16:  ES64L-G16RevA.03 25-Dec-2016

 --------------------------
 # ccsd(t)/6-311++g(d,p) sp
 --------------------------

 -------------------
 Title Card Required
 -------------------
 Symbolic Z-matrix:
 Charge =  0 Multiplicity = 2

                         Standard orientation:
 ---------------------------------------------------------------------
 Center     Atomic      Atomic             Coordinates (Angstroms)
 Number     Number       Type             X           Y           Z
 ---------------------------------------------------------------------
      1          8           0        4.560898   -0.247420    0.329030
      2          1           0        4.588946    0.637436   -0.055041
      3          6           0        2.252067   -0.306808   -0.072208
      4          1           0        3.803114   -0.708519   -0.126597
      5          6           0        1.095181    0.031241   -0.103453
      6          6           0       -0.309056    0.403259   -0.190573
      7          8           0       -0.694179    1.532133   -0.065478
      8          8           0       -1.074894   -0.658443   -0.422829
      9          6           0       -2.493756   -0.409379   -0.509040
     10          6           0       -3.108506   -0.284315    0.870844
     11          1           0       -2.879795   -1.273566   -1.046295
     12          1           0       -2.654192    0.491229   -1.102757
     13          1           0       -4.190453   -0.171781    0.778964
     14          1           0       -2.902713   -1.178117    1.461495
     15          1           0       -2.715089    0.589171    1.391019
 ---------------------------------------------------------------------

 SCF Done:  E(UHF) =  -417.941747166     A.U. after   31 cycles
 E2 =    -0.1262603690D+01 EUMP2 =    -0.41920435085595D+03
 CCSD(T)= -0.41932447704D+03

 The electronic state is 2-A.
 Alpha  occ. eigenvalues --  -20.62156 -20.60331 -20.56786 -11.42581 -11.32011
 Alpha  occ. eigenvalues --  -11.30378 -11.26271 -11.23120  -1.49046  -1.39569
 Alpha  occ. eigenvalues --   -1.38592  -1.09563  -1.05386  -0.93668  -0.84543
 Alpha  occ. eigenvalues --   -0.78828  -0.76654  -0.70218  -0.67293  -0.66718
 Alpha  occ. eigenvalues --   -0.63946  -0.59024  -0.57472  -0.55317  -0.54813
 Alpha  occ. eigenvalues --   -0.54049  -0.51201  -0.48951  -0.47481  -0.46073
 Alpha  occ. eigenvalues --   -0.45923
 Alpha virt. eigenvalues --    0.03923   0.04820   0.05640   0.06357   0.07384
 Alpha virt. eigenvalues --    0.07940   0.08286   0.09078   0.11084   0.12177
 Alpha virt. eigenvalues --    0.12943   0.13281   0.14333   0.15372   0.16029

  Beta  occ. eigenvalues --  -20.62173 -20.59008 -20.57426 -11.42087 -11.30386
  Beta  occ. eigenvalues --  -11.28080 -11.26464 -11.23122  -1.49361  -1.39623
  Beta  occ. eigenvalues --   -1.35224  -1.08904  -1.03999  -0.91983  -0.83403
  Beta  occ. eigenvalues --   -0.76850  -0.73014  -0.70840  -0.67668  -0.64328
  Beta  occ. eigenvalues --   -0.59505  -0.58920  -0.56444  -0.54881  -0.52127
  Beta  occ. eigenvalues --   -0.51344  -0.49751  -0.48242  -0.44382  -0.43915
  Beta virt. eigenvalues --   -0.00225   0.04000   0.05613   0.06101   0.06369
  Beta virt. eigenvalues --    0.07466   0.08053   0.09061   0.09948   0.11573
  Beta virt. eigenvalues --    0.12608   0.13237   0.13521   0.14827   0.15506

 Mulliken charges and spin densities:
               1          2
     1  O   -0.376300   0.216870
     2  H    0.270884  -0.012183
     3  C   -0.552330   1.957599
     4  H    0.353639  -0.089015
     5  C    1.315502  -1.089659
     6  C   -0.927857   0.144991
     7  O   -0.272144  -0.132319
     8  O   -0.086838   0.003360
     9  C   -0.166503   0.002445
    10  C   -0.360113  -0.001301
    11  H    0.169106  -0.000252
    12  H    0.176479  -0.000132
    13  H    0.137232  -0.000119
    14  H    0.145752  -0.000114
    15  H    0.173491  -0.000171
 Sum of Mulliken charges =  -0.00000   1.00000

 Dipole moment (field-independent basis, Debye):
    X=             -1.8417    Y=             -0.7860    Z=             -1.4244  Tot=              2.4574
 Quadrupole moment (field-independent basis, Debye-Ang):
   XX=            -44.0979   YY=            -51.9742   ZZ=            -47.7858
   XY=              7.0544   XZ=             -4.9423   YZ=             -0.1546

 Normal termination of Gaussian 16 at Wed Jul  2 19:19:33 2025.
