 Gaussian 16, Revision A.03,
 Gaussian 16:  ES64L-G16RevA.03 25-Dec-2016

 -------------------
 # freq 6-31+g m062x
 -------------------

 -------------------
 Title Card Required
 -------------------
 Symbolic Z-matrix:
 Charge =  0 Multiplicity = 2

                         Standard orientation:
 ---------------------------------------------------------------------
 Center     Atomic      Atomic             Coordinates (Angstroms)
 Number     Number       Type             X           Y           Z
 ---------------------------------------------------------------------
      1          8           0        4.559645   -0.256634    0.320619
      2          1           0        4.607003    0.647672   -0.029791
      3          6           0        2.264842   -0.312798   -0.077011
      4          1           0        3.522597   -0.622229   -0.046433
      5          6           0        1.105715    0.024447   -0.106227
      6          6           0       -0.302612    0.403090   -0.189121
      7          8           0       -0.689268    1.531786   -0.062850
      8          8           0       -1.072761   -0.656784   -0.424515
      9          6           0       -2.491531   -0.405552   -0.509781
     10          6           0       -3.106292   -0.282946    0.870450
     11          1           0       -2.878851   -1.268089   -1.048892
     12          1           0       -2.651249    0.496586   -1.101357
     13          1           0       -4.188147   -0.168796    0.779067
     14          1           0       -2.901495   -1.178352    1.459040
     15          1           0       -2.711528    0.588816    1.392494
 ---------------------------------------------------------------------

 SCF Done:  E(UM062X) =  -419.924266003     A.U. after   24 cycles

 The electronic state is 2-A.
 Alpha  occ. eigenvalues --  -19.73446 -19.70984 -19.66638 -10.73329 -10.61860
 Alpha  occ. eigenvalues --  -10.60457 -10.58964 -10.54840  -1.28346  -1.20543
 Alpha  occ. eigenvalues --   -1.18972  -0.91382  -0.87972  -0.78797  -0.71697
 Alpha  occ. eigenvalues --   -0.68146  -0.64651  -0.58745  -0.57557  -0.57054
 Alpha  occ. eigenvalues --   -0.54416  -0.49841  -0.47312  -0.47109  -0.45704
 Alpha  occ. eigenvalues --   -0.43675  -0.42243  -0.39706  -0.38637  -0.37813
 Alpha  occ. eigenvalues --   -0.36851
 Alpha virt. eigenvalues --   -0.01978   0.01248   0.02155   0.03430   0.04091
 Alpha virt. eigenvalues --    0.04717   0.04983   0.06555   0.07463   0.08398
 Alpha virt. eigenvalues --    0.08850   0.09060   0.09321   0.10682   0.12441

  Beta  occ. eigenvalues --  -19.72165 -19.70990 -19.66637 -10.73316 -10.61860
  Beta  occ. eigenvalues --  -10.59733 -10.58892 -10.54840  -1.28347  -1.18974
  Beta  occ. eigenvalues --   -1.15956  -0.91014  -0.87274  -0.78458  -0.70888
  Beta  occ. eigenvalues --   -0.64926  -0.63732  -0.58752  -0.57103  -0.54518
  Beta  occ. eigenvalues --   -0.51787  -0.49826  -0.47214  -0.45637  -0.43698
  Beta  occ. eigenvalues --   -0.42310  -0.39385  -0.38642  -0.36924  -0.36364
  Beta virt. eigenvalues --   -0.16610  -0.01446   0.01681   0.02226   0.03451
  Beta virt. eigenvalues --    0.04608   0.04792   0.05028   0.06662   0.07646
  Beta virt. eigenvalues --    0.08444   0.08935   0.09080   0.09468   0.10900

 Mulliken charges and spin densities:
               1          2
     1  O   -0.467022   0.651807
     2  H    0.421209  -0.022798
     3  C    1.239996   0.110114
     4  H    0.497215  -0.051202
     5  C   -0.420010   0.263154
     6  C   -1.021753   0.049938
     7  O   -0.351418  -0.000450
     8  O   -0.207560  -0.000483
     9  C   -0.251600   0.000290
    10  C   -0.560725  -0.000259
    11  H    0.221668  -0.000024
    12  H    0.233088  -0.000035
    13  H    0.209047  -0.000058
    14  H    0.221406  -0.000003
    15  H    0.236459   0.000009
 Sum of Mulliken charges =  -0.00000   1.00000

 Dipole moment (field-independent basis, Debye):
    X=             -0.7595    Y=             -0.0239    Z=             -1.0170  Tot=              1.2695
 Quadrupole moment (field-independent basis, Debye-Ang):
   XX=            -35.2277   YY=            -53.4986   ZZ=            -48.4730
   XY=              9.1649   XZ=             -3.5394   YZ=             -0.4201

  Exact polarizability: 129.548  -6.529  58.710   3.353   0.411  46.077
 Approx polarizability: 114.456 -13.159  74.591   4.176   1.804  47.671

 ******    5 imaginary frequencies (negative Signs) ******

                      1                      2                      3
                      A                      A                      A
 Frequencies --  -1296.3879              -470.3694              -160.1307
 Red. masses --      1.0432                 1.0492                 3.5597
 Frc consts  --      1.0330                 0.1368                 0.0538
 IR Inten    --    494.9277               124.9274                31.4367

                      4                      5                      6
                      A                      A                      A
 Frequencies --    -96.1853               -27.1010                55.6867
 Red. masses --      8.4245                 2.9576                 4.0889
 Frc consts  --      0.0459                 0.0013                 0.0075
 IR Inten    --      7.7347                 0.2616                10.0319

                      7                      8                      9
                      A                      A                      A
 Frequencies --    112.3777               185.6646               268.3527
 Red. masses --      3.4555                 1.2925                 3.9674
 Frc consts  --      0.0257                 0.0262                 0.1683
 IR Inten    --      4.2547                 1.6753                18.2619

                     10                     11                     12
                      A                      A                      A
 Frequencies --    317.2459               397.3684               427.7179
 Red. masses --      3.1755                 6.2817                 3.6864
 Frc consts  --      0.1883                 0.5844                 0.3973
 IR Inten    --      7.3894                10.3207                 1.9017

                     13                     14                     15
                      A                      A                      A
 Frequencies --    568.6093               628.9549               662.8529
 Red. masses --      2.5064                 3.2647                 3.3020
 Frc consts  --      0.4775                 0.7609                 0.8548
 IR Inten    --     58.9212                45.5824               133.4666

                     16                     17                     18
                      A                      A                      A
 Frequencies --    801.7434               820.2056               894.0679
 Red. masses --      2.7936                 1.8319                 2.8437
 Frc consts  --      1.0580                 0.7261                 1.3393
 IR Inten    --     26.7406                 8.4923                16.3534

                     19                     20                     21
                      A                      A                      A
 Frequencies --    928.9769               998.7343              1114.2919
 Red. masses --      1.9731                 1.7261                 4.1120
 Frc consts  --      1.0033                 1.0144                 3.0082
 IR Inten    --     28.1219                69.9580                 4.7381

                     22                     23                     24
                      A                      A                      A
 Frequencies --   1157.5630              1227.1597              1325.6661
 Red. masses --      2.0957                 1.7637                 2.1751
 Frc consts  --      1.6545                 1.5649                 2.2522
 IR Inten    --     25.8833                 4.4091               463.7391

                     25                     26                     27
                      A                      A                      A
 Frequencies --   1369.9809              1442.4879              1455.8718
 Red. masses --      1.6339                 1.3634                 1.2638
 Frc consts  --      1.8068                 1.6715                 1.5782
 IR Inten    --    318.5946                41.0281                16.5935

                     28                     29                     30
                      A                      A                      A
 Frequencies --   1528.0425              1535.7656              1544.6978
 Red. masses --      1.0421                 1.0767                 1.0649
 Frc consts  --      1.4336                 1.4962                 1.4970
 IR Inten    --     16.8106                 5.0820                 4.5556

                     31                     32                     33
                      A                      A                      A
 Frequencies --   1548.0285              1905.2908              2363.4707
 Red. masses --      1.0704                12.4032                10.8363
 Frc consts  --      1.5113                26.5282                35.6643
 IR Inten    --    357.9728               323.8669                58.6483

                     34                     35                     36
                      A                      A                      A
 Frequencies --   3108.0139              3138.0380              3187.9528
 Red. masses --      1.0351                 1.0601                 1.1008
 Frc consts  --      5.8911                 6.1508                 6.5913
 IR Inten    --     13.5508                20.5098                12.8745

                     37                     38                     39
                      A                      A                      A
 Frequencies --   3191.0042              3211.9577              3821.9657
 Red. masses --      1.1022                 1.1053                 1.0654
 Frc consts  --      6.6123                 6.7182                 9.1697
 IR Inten    --      7.8858                17.6002                78.1284

 - Thermochemistry -
 -------------------
 Temperature   298.150 Kelvin.  Pressure   1.00000 Atm.
 Atom     1 has atomic number  8 and mass  15.99491

 Molecular mass:   115.03952 amu.
 Principal axes and moments of inertia in atomic units:
                           1         2         3
     Eigenvalues --   286.956822618.045382730.63340
           X            0.99993   0.00864  -0.00848
           Y           -0.00872   0.99992  -0.00946
           Z            0.00840   0.00953   0.99992
 This molecule is an asymmetric top.
 Rotational symmetry number  1.
 Rotational temperatures (Kelvin)      0.30184     0.03308     0.03172
 Rotational constants (GHZ):           6.28924     0.68935     0.66092
    5 imaginary frequencies ignored.
 Zero-point vibrational energy     282592.7 (Joules/Mol)
                                   67.54127 (Kcal/Mol)
 Warning -- explicit consideration of   8 degrees of freedom as
           vibrations may cause significant error
 Vibrational temperatures:     80.12   161.69   267.13   386.10   456.45
          (Kelvin)            571.72   615.39   818.10   904.93   953.70
                             1153.53  1180.09  1286.36  1336.59  1436.96
                             1603.22  1665.48  1765.61  1907.34  1971.10
                             2075.42  2094.67  2198.51  2209.62  2222.48
                             2227.27  2741.29  3400.51  4471.74  4514.94
                             4586.75  4591.14  4621.29  5498.96

 Zero-point correction=                           0.107634 (Hartree/Particle)
 Thermal correction to Energy=                    0.114889
 Thermal correction to Enthalpy=                  0.115833
 Thermal correction to Gibbs Free Energy=         0.074128
 Sum of electronic and zero-point Energies=           -419.816632
 Sum of electronic and thermal Energies=              -419.809377
 Sum of electronic and thermal Enthalpies=            -419.808433
 Sum of electronic and thermal Free Energies=         -419.850138

                     E (Thermal)             CV                S
                      KCal/Mol        Cal/Mol-Kelvin    Cal/Mol-Kelvin
 Total                   72.094             24.983             87.776
 Electronic               0.000              0.000              1.377
 Translational            0.889              2.981             40.136
 Rotational               0.889              2.981             29.108
 Vibrational             70.317             19.022             17.155
 Vibration     1          0.596              1.975              4.604
 Vibration     2          0.607              1.939              3.227
 Vibration     3          0.632              1.859              2.271
 Vibration     4          0.673              1.731              1.607
 Vibration     5          0.704              1.641              1.324
 Vibration     6          0.764              1.476              0.972
 Vibration     7          0.789              1.410              0.866
 Vibration     8          0.925              1.099              0.507

 Normal termination of Gaussian 16 at Fri Jun 20 12:16:01 2025.
