 Gaussian 16, Revision A.03,
 Gaussian 16:  ES64L-G16RevA.03 25-Dec-2016

 --------------------------
 # freq 6-311++g(d,p) m062x
 --------------------------

 -------------------
 Title Card Required
 -------------------
 Symbolic Z-matrix:
 Charge =  0 Multiplicity = 2

                         Standard orientation:
 ---------------------------------------------------------------------
 Center     Atomic      Atomic             Coordinates (Angstroms)
 Number     Number       Type             X           Y           Z
 ---------------------------------------------------------------------
      1          8           0        4.561282   -0.246381    0.330205
      2          1           0        4.587612    0.636377   -0.058097
      3          6           0        2.251065   -0.306206   -0.071483
      4          1           0        3.824703   -0.717565   -0.136835
      5          6           0        1.094330    0.031733   -0.103163
      6          6           0       -0.309566    0.403316   -0.190731
      7          8           0       -0.694721    1.532202   -0.065984
      8          8           0       -1.075100   -0.658676   -0.422584
      9          6           0       -2.493919   -0.409840   -0.508952
     10          6           0       -3.108709   -0.284311    0.870868
     11          1           0       -2.879872   -1.274264   -1.045890
     12          1           0       -2.654452    0.490531   -1.103008
     13          1           0       -4.190668   -0.171947    0.778923
     14          1           0       -2.902815   -1.177860    1.461867
     15          1           0       -2.715404    0.589421    1.390712
 ---------------------------------------------------------------------

 SCF Done:  E(UM062X) =  -420.176159062     A.U. after   24 cycles

 The electronic state is 2-A.
 Alpha  occ. eigenvalues --  -19.68921 -19.67663 -19.63859 -10.71309 -10.61067
 Alpha  occ. eigenvalues --  -10.60855 -10.57845 -10.54177  -1.26360  -1.18512
 Alpha  occ. eigenvalues --   -1.17079  -0.91284  -0.87753  -0.78552  -0.70868
 Alpha  occ. eigenvalues --   -0.66804  -0.64701  -0.59070  -0.57043  -0.55207
 Alpha  occ. eigenvalues --   -0.54013  -0.49897  -0.47231  -0.46528  -0.45870
 Alpha  occ. eigenvalues --   -0.42674  -0.42066  -0.40196  -0.39121  -0.38409
 Alpha  occ. eigenvalues --   -0.37134
 Alpha virt. eigenvalues --   -0.02288  -0.00388   0.00142   0.01635   0.02279
 Alpha virt. eigenvalues --    0.02684   0.03448   0.04894   0.05324   0.06134
 Alpha virt. eigenvalues --    0.06929   0.07749   0.08048   0.08651   0.10271

  Beta  occ. eigenvalues --  -19.68933 -19.67009 -19.63858 -10.71286 -10.61067
  Beta  occ. eigenvalues --  -10.59622 -10.57726 -10.54178  -1.26368  -1.17085
  Beta  occ. eigenvalues --   -1.16170  -0.90628  -0.86586  -0.77951  -0.70187
  Beta  occ. eigenvalues --   -0.64865  -0.64211  -0.59077  -0.57095  -0.54266
  Beta  occ. eigenvalues --   -0.50668  -0.49876  -0.47247  -0.45850  -0.42968
  Beta  occ. eigenvalues --   -0.42458  -0.39680  -0.39137  -0.36814  -0.36205
  Beta virt. eigenvalues --   -0.15349  -0.01104  -0.00178   0.00393   0.01660
  Beta virt. eigenvalues --    0.02286   0.02979   0.03592   0.05314   0.05829
  Beta virt. eigenvalues --    0.06773   0.06977   0.07764   0.08126   0.08664

 Mulliken charges and spin densities:
               1          2
     1  O   -0.327604   0.260653
     2  H    0.275842  -0.007221
     3  C   -0.594123   0.811120
     4  H    0.379384  -0.034079
     5  C    1.095144   0.072190
     6  C   -0.858414  -0.099631
     7  O   -0.207723  -0.000868
     8  O    0.011814  -0.000426
     9  C   -0.282123  -0.001552
    10  C   -0.403097   0.000189
    11  H    0.198081  -0.000183
    12  H    0.193814   0.000063
    13  H    0.166594  -0.000034
    14  H    0.167699  -0.000017
    15  H    0.184711  -0.000204
 Sum of Mulliken charges =  -0.00000   1.00000

 Dipole moment (field-independent basis, Debye):
    X=             -1.4077    Y=             -0.5132    Z=             -1.2007  Tot=              1.9201
 Quadrupole moment (field-independent basis, Debye-Ang):
   XX=            -39.4325   YY=            -51.7462   ZZ=            -48.0133
   XY=              7.1302   XZ=             -4.3796   YZ=             -0.1548

  Exact polarizability: 138.291  -8.196  62.542   1.323   0.650  51.215
 Approx polarizability: 119.318 -13.003  80.476   2.846   1.936  58.079

 ******    4 imaginary frequencies (negative Signs) ******

                      1                      2                      3
                      A                      A                      A
 Frequencies --   -473.8229              -171.8567               -56.4535
 Red. masses --      1.0357                 1.0979                 8.3824
 Frc consts  --      0.1370                 0.0191                 0.0157
 IR Inten    --    146.2555                67.8718                 0.6221

                      4                      5                      6
                      A                      A                      A
 Frequencies --    -41.5645                71.1199               108.1541
 Red. masses --      5.7931                 4.1181                 5.3329
 Frc consts  --      0.0059                 0.0123                 0.0368
 IR Inten    --      6.8933                 2.0040                 3.1459

                      7                      8                      9
                      A                      A                      A
 Frequencies --    123.9333               187.1671               229.3588
 Red. masses --      3.3514                 4.4956                 1.3381
 Frc consts  --      0.0303                 0.0928                 0.0415
 IR Inten    --      7.3439                70.8269                 4.2876

                     10                     11                     12
                      A                      A                      A
 Frequencies --    241.9423               333.0355               418.4212
 Red. masses --      8.1810                 2.8357                 3.3627
 Frc consts  --      0.2822                 0.1853                 0.3469
 IR Inten    --      9.0575                10.9824                16.8791

                     13                     14                     15
                      A                      A                      A
 Frequencies --    436.0828               550.5487               599.3153
 Red. masses --      1.1170                 5.9590                 7.1584
 Frc consts  --      0.1252                 1.0642                 1.5149
 IR Inten    --    134.5157                12.3242                45.5928

                     16                     17                     18
                      A                      A                      A
 Frequencies --    770.9134               798.9636               894.6261
 Red. masses --     10.2505                 1.2090                 3.0574
 Frc consts  --      3.5893                 0.4547                 1.4417
 IR Inten    --     16.7632                 5.0077                 7.8943

                     19                     20                     21
                      A                      A                      A
 Frequencies --    932.6867              1076.9941              1127.7829
 Red. masses --      2.9567                 4.1966                 2.0884
 Frc consts  --      1.5154                 2.8679                 1.5650
 IR Inten    --      3.9774                22.5248                26.5344

                     22                     23                     24
                      A                      A                      A
 Frequencies --   1203.0065              1287.8732              1347.8477
 Red. masses --      1.7790                 4.0807                 1.2208
 Frc consts  --      1.5169                 3.9878                 1.3067
 IR Inten    --      5.9892               768.7428               111.2740

                     25                     26                     27
                      A                      A                      A
 Frequencies --   1401.5181              1431.1158              1475.5490
 Red. masses --      1.2751                 1.3802                 1.0933
 Frc consts  --      1.4757                 1.6655                 1.4024
 IR Inten    --     36.1108                10.9450                66.9101

                     28                     29                     30
                      A                      A                      A
 Frequencies --   1492.7187              1501.6505              1514.1215
 Red. masses --      1.0412                 1.0672                 1.0790
 Frc consts  --      1.3670                 1.4178                 1.4574
 IR Inten    --     11.1655                 4.0276                18.9972

                     31                     32                     33
                      A                      A                      A
 Frequencies --   1840.1417              2230.5027              3076.1240
 Red. masses --     12.1525                11.4221                 1.0354
 Frc consts  --     24.2447                33.4813                 5.7723
 IR Inten    --    335.7554               106.4089                10.4739

                     34                     35                     36
                      A                      A                      A
 Frequencies --   3108.4349              3137.2231              3151.7123
 Red. masses --      1.0608                 1.0732                 1.1014
 Frc consts  --      6.0393                 6.2236                 6.4461
 IR Inten    --     18.6786               281.1658                13.8002

                     37                     38                     39
                      A                      A                      A
 Frequencies --   3155.4959              3176.2765              3884.8772
 Red. masses --      1.1048                 1.1074                 1.0680
 Frc consts  --      6.4817                 6.5823                 9.4972
 IR Inten    --      1.8721                14.4912               137.6528

 - Thermochemistry -
 -------------------
 Temperature   298.150 Kelvin.  Pressure   1.00000 Atm.
 Atom     1 has atomic number  8 and mass  15.99491

 Molecular mass:   115.03952 amu.
 Principal axes and moments of inertia in atomic units:
                           1         2         3
     Eigenvalues --   287.677452625.231862737.93467
           X            0.99993   0.00776  -0.00902
           Y           -0.00783   0.99994  -0.00777
           Z            0.00896   0.00784   0.99993
 This molecule is an asymmetric top.
 Rotational symmetry number  1.
 Rotational temperatures (Kelvin)      0.30108     0.03299     0.03163
 Rotational constants (GHZ):           6.27349     0.68746     0.65916
    4 imaginary frequencies ignored.
 Zero-point vibrational energy     289001.2 (Joules/Mol)
                                   69.07296 (Kcal/Mol)
 Warning -- explicit consideration of  11 degrees of freedom as
           vibrations may cause significant error
 Vibrational temperatures:    102.33   155.61   178.31   269.29   330.00
          (Kelvin)            348.10   479.16   602.01   627.43   792.12
                              862.28  1109.17  1149.53  1287.17  1341.93
                             1549.55  1622.63  1730.86  1852.96  1939.25
                             2016.47  2059.06  2122.99  2147.69  2160.54
                             2178.48  2647.55  3209.20  4425.86  4472.34
                             4513.76  4534.61  4540.05  4569.95  5589.47

 Zero-point correction=                           0.110075 (Hartree/Particle)
 Thermal correction to Energy=                    0.118392
 Thermal correction to Enthalpy=                  0.119336
 Thermal correction to Gibbs Free Energy=         0.075624
 Sum of electronic and zero-point Energies=           -420.066084
 Sum of electronic and thermal Energies=              -420.057767
 Sum of electronic and thermal Enthalpies=            -420.056823
 Sum of electronic and thermal Free Energies=         -420.100535

                     E (Thermal)             CV                S
                      KCal/Mol        Cal/Mol-Kelvin    Cal/Mol-Kelvin
 Total                   74.292             27.723             92.001
 Electronic               0.000              0.000              1.377
 Translational            0.889              2.981             40.136
 Rotational               0.889              2.981             29.115
 Vibrational             72.515             21.761             21.372
 Vibration     1          0.598              1.968              4.122
 Vibration     2          0.606              1.943              3.302
 Vibration     3          0.610              1.929              3.038
 Vibration     4          0.632              1.857              2.256
 Vibration     5          0.652              1.796              1.884
 Vibration     6          0.658              1.776              1.789
 Vibration     7          0.715              1.610              1.245
 Vibration     8          0.781              1.430              0.897
 Vibration     9          0.797              1.392              0.839
 Vibration    10          0.906              1.138              0.543
 Vibration    11          0.957              1.033              0.451

 1\1\GINC-AJ\Freq\UM062X\6-311++G(d,p)\C5H7O3(2)\AAYUSH\16-Aug-2025\0\\
 # freq 6-311++g(d,p) m062x\\Title Card Required\\0,2\O,4.50152,-0.2658
 42,0.338609\H,4.528577,0.617894,-0.047412\C,2.191065,-0.322272,-0.0622
 \H,3.764253,-0.735062,-0.129324\C,1.034661,0.016925,-0.092484\C,-0.368
 895,0.390163,-0.178459\O,-0.752843,1.519113,-0.050609\O,-1.135614,-0.6
 70443,-0.412726\C,-2.554217,-0.41994,-0.497813\C,-3.168264,-0.297369,0
 .882603\H,-2.941289,-1.282573,-1.036821\H,-2.714096,0.482134,-1.089457
 \H,-4.250149,-0.183665,0.791435\H,-2.963018,-1.192659,1.471188\H,-2.77

 Normal termination of Gaussian 16 at Sat Aug 16 14:02:52 2025.
