 Gaussian 16, Revision A.03,
 Gaussian 16:  ES64L-G16RevA.03 25-Dec-2016

 --------------------------
 # ccsd(t)/6-311++g(d,p) sp
 --------------------------

 -------------------
 Title Card Required
 -------------------
 Symbolic Z-matrix:
 Charge =  0 Multiplicity = 2

                         Standard orientation:
 ---------------------------------------------------------------------
 Center     Atomic      Atomic             Coordinates (Angstroms)
 Number     Number       Type             X           Y           Z
 ---------------------------------------------------------------------
      1          8           0        4.565524   -0.256439    0.321194
      2          1           0        4.612907    0.650683   -0.027414
      3          6           0        2.266834   -0.314229   -0.077628
      4          1           0        3.391773   -0.627332   -0.058349
      5          6           0        1.108621    0.022707   -0.106693
      6          6           0       -0.300371    0.403203   -0.188976
      7          8           0       -0.687907    1.531961   -0.063936
      8          8           0       -1.071932   -0.656815   -0.423747
      9          6           0       -2.490519   -0.405188   -0.509004
     10          6           0       -3.105218   -0.281326    0.871199
     11          1           0       -2.878337   -1.268029   -1.047362
     12          1           0       -2.650231    0.496559   -1.101198
     13          1           0       -4.187082   -0.166939    0.779922
     14          1           0       -2.900558   -1.176328    1.460479
     15          1           0       -2.710032    0.590717    1.392444
 ---------------------------------------------------------------------

 SCF Done:  E(UHF) =  -417.957874601     A.U. after   42 cycles
 E2 =    -0.1269177774D+01 EUMP2 =    -0.41922705237488D+03
 CCSD(T)= -0.41933426692D+03

 The electronic state is 2-A.
 Alpha  occ. eigenvalues --  -20.67869 -20.61191 -20.55680 -11.41394 -11.29655
 Alpha  occ. eigenvalues --  -11.26434 -11.24626 -11.22517  -1.47967  -1.45112
 Alpha  occ. eigenvalues --   -1.37681  -1.07003  -1.03779  -0.92401  -0.84680
 Alpha  occ. eigenvalues --   -0.80983  -0.75706  -0.72616  -0.69268  -0.66176
 Alpha  occ. eigenvalues --   -0.63428  -0.61813  -0.58493  -0.57634  -0.54583
 Alpha  occ. eigenvalues --   -0.53976  -0.50479  -0.47724  -0.46161  -0.42123
 Alpha  occ. eigenvalues --   -0.41919
 Alpha virt. eigenvalues --    0.03782   0.04421   0.06027   0.06538   0.07166
 Alpha virt. eigenvalues --    0.08356   0.09398   0.09561   0.11747   0.12701
 Alpha virt. eigenvalues --    0.13674   0.13915   0.14926   0.15577   0.16567

  Beta  occ. eigenvalues --  -20.63962 -20.61202 -20.55964 -11.41188 -11.29658
  Beta  occ. eigenvalues --  -11.25534 -11.24502 -11.22518  -1.48108  -1.38140
  Beta  occ. eigenvalues --   -1.30684  -1.07111  -1.03103  -0.91588  -0.82996
  Beta  occ. eigenvalues --   -0.76090  -0.73534  -0.69534  -0.66446  -0.64526
  Beta  occ. eigenvalues --   -0.62904  -0.58431  -0.55332  -0.55150  -0.54069
  Beta  occ. eigenvalues --   -0.50551  -0.48215  -0.46895  -0.41563  -0.41316
  Beta virt. eigenvalues --    0.01913   0.04353   0.05816   0.06025   0.06562
  Beta virt. eigenvalues --    0.07212   0.08426   0.09422   0.09897   0.12090
  Beta virt. eigenvalues --    0.12862   0.13724   0.14151   0.15139   0.15756

 Mulliken charges and spin densities:
               1          2
     1  O   -0.174160   0.901247
     2  H    0.275531  -0.036467
     3  C   -0.697802   0.717029
     4  H    0.393963  -0.089566
     5  C    1.300649  -0.510405
     6  C   -0.994265   0.074207
     7  O   -0.288274  -0.058144
     8  O   -0.085354   0.001779
     9  C   -0.163706   0.000987
    10  C   -0.359532  -0.000325
    11  H    0.166302  -0.000108
    12  H    0.174917  -0.000011
    13  H    0.133920  -0.000054
    14  H    0.144440  -0.000086
    15  H    0.173373  -0.000081
 Sum of Mulliken charges =  -0.00000   1.00000

 Dipole moment (field-independent basis, Debye):
    X=              0.5768    Y=             -0.4401    Z=             -0.7725  Tot=              1.0598
 Quadrupole moment (field-independent basis, Debye-Ang):
   XX=            -28.2226   YY=            -52.9724   ZZ=            -48.1276
   XY=              8.1368   XZ=             -2.0978   YZ=             -0.4717

 Normal termination of Gaussian 16 at Sat Jun 28 17:27:32 2025.
