 Gaussian 16, Revision A.03,
 Gaussian 16:  ES64L-G16RevA.03 25-Dec-2016

 --------------------------
 # ccsd(t)/6-311++g(d,p) sp
 --------------------------

 -------------------
 Title Card Required
 -------------------
 Symbolic Z-matrix:
 Charge =  0 Multiplicity = 2

                         Standard orientation:
 ---------------------------------------------------------------------
 Center     Atomic      Atomic             Coordinates (Angstroms)
 Number     Number       Type             X           Y           Z
 ---------------------------------------------------------------------
      1          8           0        4.558293   -0.256201    0.320167
      2          1           0        4.604646    0.646264   -0.031920
      3          6           0        2.263137   -0.312025   -0.077043
      4          1           0        3.575405   -0.626317   -0.047375
      5          6           0        1.104284    0.025338   -0.106121
      6          6           0       -0.303601    0.403101   -0.189131
      7          8           0       -0.689912    1.531759   -0.062346
      8          8           0       -1.073161   -0.656784   -0.424593
      9          6           0       -2.492012   -0.405764   -0.509669
     10          6           0       -3.106595   -0.283609    0.870658
     11          1           0       -2.879191   -1.268218   -1.048978
     12          1           0       -2.651850    0.496497   -1.101017
     13          1           0       -4.188465   -0.169599    0.779389
     14          1           0       -2.901625   -1.179142    1.458987
     15          1           0       -2.711952    0.588081    1.392917
 ---------------------------------------------------------------------

 SCF Done:  E(UHF) =  -417.935352668     A.U. after   37 cycles
 E2 =    -0.1271094307D+01 EUMP2 =    -0.41920644697560D+03
 CCSD(T)= -0.41932390460D+03

 The electronic state is 2-A.
 Alpha  occ. eigenvalues --  -20.66012 -20.61520 -20.56065 -11.41849 -11.29916
 Alpha  occ. eigenvalues --  -11.29345 -11.25039 -11.22741  -1.48338  -1.43896
 Alpha  occ. eigenvalues --   -1.37939  -1.07865  -1.04558  -0.92894  -0.84489
 Alpha  occ. eigenvalues --   -0.81202  -0.76096  -0.70414  -0.69565  -0.66486
 Alpha  occ. eigenvalues --   -0.63602  -0.59509  -0.58541  -0.56804  -0.54710
 Alpha  occ. eigenvalues --   -0.54196  -0.50727  -0.48025  -0.46317  -0.44203
 Alpha  occ. eigenvalues --   -0.43929
 Alpha virt. eigenvalues --    0.04014   0.04433   0.05883   0.06518   0.07223
 Alpha virt. eigenvalues --    0.08209   0.09105   0.09324   0.11465   0.12500
 Alpha virt. eigenvalues --    0.13427   0.13639   0.14646   0.15819   0.16245

  Beta  occ. eigenvalues --  -20.63050 -20.61540 -20.56582 -11.41457 -11.29923
  Beta  occ. eigenvalues --  -11.26605 -11.25252 -11.22742  -1.48598  -1.38776
  Beta  occ. eigenvalues --   -1.33486  -1.07809  -1.03356  -0.91529  -0.82902
  Beta  occ. eigenvalues --   -0.76261  -0.73408  -0.70078  -0.66931  -0.63825
  Beta  occ. eigenvalues --   -0.59861  -0.58858  -0.55747  -0.54391  -0.54000
  Beta  occ. eigenvalues --   -0.50865  -0.48872  -0.47522  -0.42778  -0.42370
  Beta virt. eigenvalues --   -0.00444   0.04216   0.05429   0.05880   0.06537
  Beta virt. eigenvalues --    0.07301   0.08267   0.09280   0.10045   0.11875
  Beta virt. eigenvalues --    0.12767   0.13546   0.13967   0.14983   0.15624

 Mulliken charges and spin densities:
               1          2
     1  O   -0.255538   0.624540
     2  H    0.275687  -0.027491
     3  C   -0.653445   1.466875
     4  H    0.411338  -0.161235
     5  C    1.294468  -0.929413
     6  C   -0.977348   0.129715
     7  O   -0.280899  -0.106154
     8  O   -0.085943   0.002827
     9  C   -0.164774   0.001863
    10  C   -0.359643  -0.000909
    11  H    0.167461  -0.000216
    12  H    0.175374  -0.000048
    13  H    0.135115  -0.000112
    14  H    0.144910  -0.000116
    15  H    0.173237  -0.000125
 Sum of Mulliken charges =  -0.00000   1.00000

 Dipole moment (field-independent basis, Debye):
    X=             -0.3132    Y=             -0.4791    Z=             -0.9271  Tot=              1.0895
 Quadrupole moment (field-independent basis, Debye-Ang):
   XX=            -33.9784   YY=            -52.6813   ZZ=            -47.9998
   XY=              8.1241   XZ=             -2.7317   YZ=             -0.4117

 3\PMP3-0=-419.2498229\MP4SDQ=-419.2605989\CCSD=-419.2683721\CCSD(T)=-4
 Normal termination of Gaussian 16 at Tue Aug 19 04:42:12 2025.
