 Gaussian 16, Revision A.03,
 Gaussian 16:  ES64L-G16RevA.03 25-Dec-2016

 --------------------------
 # freq 6-311++g(d,p) m062x
 --------------------------

 -------------------
 Title Card Required
 -------------------
 Symbolic Z-matrix:
 Charge =  0 Multiplicity = 2

                         Standard orientation:
 ---------------------------------------------------------------------
 Center     Atomic      Atomic             Coordinates (Angstroms)
 Number     Number       Type             X           Y           Z
 ---------------------------------------------------------------------
      1          8           0        4.557788   -0.255080    0.321131
      2          1           0        4.601868    0.644735   -0.034536
      3          6           0        2.261022   -0.311117   -0.076420
      4          1           0        3.626442   -0.636766   -0.054197
      5          6           0        1.102606    0.026414   -0.105725
      6          6           0       -0.304656    0.403068   -0.189382
      7          8           0       -0.690622    1.531755   -0.062698
      8          8           0       -1.073488   -0.657004   -0.424447
      9          6           0       -2.492397   -0.406292   -0.509698
     10          6           0       -3.107021   -0.283882    0.870562
     11          1           0       -2.879326   -1.268949   -1.048828
     12          1           0       -2.652286    0.495786   -1.101310
     13          1           0       -4.188896   -0.170107    0.779171
     14          1           0       -2.901939   -1.179232    1.459121
     15          1           0       -2.712612    0.588018    1.392648
 ---------------------------------------------------------------------

 SCF Done:  E(UM062X) =  -420.174460831     A.U. after   22 cycles

 The electronic state is 2-A.
 Alpha  occ. eigenvalues --  -19.69431 -19.68818 -19.63770 -10.71245 -10.61000
 Alpha  occ. eigenvalues --  -10.59959 -10.57706 -10.54123  -1.26225  -1.18794
 Alpha  occ. eigenvalues --   -1.16950  -0.91010  -0.87539  -0.78443  -0.71049
 Alpha  occ. eigenvalues --   -0.67495  -0.64553  -0.58960  -0.56988  -0.56624
 Alpha  occ. eigenvalues --   -0.54129  -0.49802  -0.47160  -0.46306  -0.45808
 Alpha  occ. eigenvalues --   -0.43087  -0.42313  -0.39996  -0.39024  -0.38033
 Alpha  occ. eigenvalues --   -0.36912
 Alpha virt. eigenvalues --   -0.02104  -0.00448   0.00069   0.01681   0.02302
 Alpha virt. eigenvalues --    0.02696   0.03658   0.04988   0.05350   0.06228
 Alpha virt. eigenvalues --    0.06931   0.07790   0.08180   0.08694   0.10231

  Beta  occ. eigenvalues --  -19.68826 -19.68480 -19.63763 -10.71228 -10.61000
  Beta  occ. eigenvalues --  -10.58987 -10.57600 -10.54124  -1.26226  -1.16942
  Beta  occ. eigenvalues --   -1.15191  -0.90503  -0.86581  -0.77945  -0.70235
  Beta  occ. eigenvalues --   -0.64762  -0.63382  -0.58959  -0.56961  -0.54241
  Beta  occ. eigenvalues --   -0.51431  -0.49781  -0.47143  -0.45764  -0.43392
  Beta  occ. eigenvalues --   -0.42418  -0.39586  -0.39023  -0.36787  -0.36163
  Beta virt. eigenvalues --   -0.16706  -0.01323  -0.00217   0.00293   0.01697
  Beta virt. eigenvalues --    0.02318   0.02888   0.03826   0.05344   0.05698
  Beta virt. eigenvalues --    0.06567   0.07006   0.07811   0.08246   0.08736

 Mulliken charges and spin densities:
               1          2
     1  O   -0.304097   0.450419
     2  H    0.270449  -0.010793
     3  C   -0.635695   0.613588
     4  H    0.430500  -0.039254
     5  C    1.109852   0.059553
     6  C   -0.899287  -0.073471
     7  O   -0.208188   0.001374
     8  O    0.011296   0.000021
     9  C   -0.281572  -0.001397
    10  C   -0.403163   0.000218
    11  H    0.197912  -0.000145
    12  H    0.193802   0.000095
    13  H    0.166091  -0.000023
    14  H    0.167598  -0.000009
    15  H    0.184503  -0.000176
 Sum of Mulliken charges =  -0.00000   1.00000

 Dipole moment (field-independent basis, Debye):
    X=             -1.1370    Y=             -0.3197    Z=             -0.9422  Tot=              1.5108
 Quadrupole moment (field-independent basis, Debye-Ang):
   XX=            -37.2441   YY=            -52.0579   ZZ=            -48.0861
   XY=              7.9396   XZ=             -3.1708   YZ=             -0.3458

  Exact polarizability: 140.934  -7.923  61.405   2.550   0.520  50.685
 Approx polarizability: 123.941 -13.136  79.981   3.773   1.593  57.777

 ******    1 imaginary frequencies (negative Signs) ******

                      1                      2                      3
                      A                      A                      A
 Frequencies --  -1066.3424                37.6299                52.5363
 Red. masses --      1.0366                 4.1751                 6.7928
 Frc consts  --      0.6945                 0.0035                 0.0110
 IR Inten    --    394.1238                 8.4333                 1.3724

                      4                      5                      6
                      A                      A                      A
 Frequencies --     82.4033               116.3999               144.9520
 Red. masses --      2.8759                 3.3852                 3.2024
 Frc consts  --      0.0115                 0.0270                 0.0396
 IR Inten    --      7.8453                 1.9461                25.2873

                      7                      8                      9
                      A                      A                      A
 Frequencies --    165.5005               223.0557               255.8864
 Red. masses --      1.6005                 1.3339                 4.2000
 Frc consts  --      0.0258                 0.0391                 0.1620
 IR Inten    --     58.6171                 4.9935                12.2553

                     10                     11                     12
                      A                      A                      A
 Frequencies --    324.5542               336.3448               423.8463
 Red. masses --      5.2218                 3.2855                 3.8570
 Frc consts  --      0.3241                 0.2190                 0.4082
 IR Inten    --     15.3151                 7.2971                 3.3311

                     13                     14                     15
                      A                      A                      A
 Frequencies --    560.0272               575.0833               603.9306
 Red. masses --      5.5436                 1.1362                 5.4216
 Frc consts  --      1.0244                 0.2214                 1.1651
 IR Inten    --     22.0935               185.8740                24.5307

                     16                     17                     18
                      A                      A                      A
 Frequencies --    775.5912               798.3205               893.8700
 Red. masses --      9.7543                 1.2198                 3.1113
 Frc consts  --      3.4571                 0.4580                 1.4647
 IR Inten    --     18.9684                 3.8032                 7.7675

                     19                     20                     21
                      A                      A                      A
 Frequencies --    928.6100              1075.3703              1127.3673
 Red. masses --      2.8115                 4.0987                 2.0803
 Frc consts  --      1.4284                 2.7926                 1.5578
 IR Inten    --      1.8765                25.7624                25.9964

                     22                     23                     24
                      A                      A                      A
 Frequencies --   1202.0748              1240.1486              1286.4840
 Red. masses --      1.7611                 1.2386                 3.9650
 Frc consts  --      1.4993                 1.1224                 3.8664
 IR Inten    --      6.1805                63.4463               772.6374

                     25                     26                     27
                      A                      A                      A
 Frequencies --   1346.9893              1401.1827              1430.7181
 Red. masses --      1.2101                 1.2733                 1.3779
 Frc consts  --      1.2936                 1.4729                 1.6618
 IR Inten    --    105.5436                34.4584                 9.7820

                     28                     29                     30
                      A                      A                      A
 Frequencies --   1492.6666              1501.5491              1513.9625
 Red. masses --      1.0412                 1.0676                 1.0780
 Frc consts  --      1.3669                 1.4182                 1.4558
 IR Inten    --     11.6363                 4.4486                18.9517

                     31                     32                     33
                      A                      A                      A
 Frequencies --   1754.3552              1838.1049              2275.7981
 Red. masses --      1.1094                11.6858                 9.3303
 Frc consts  --      2.0117                23.2621                28.4718
 IR Inten    --    547.4635               373.7503                20.3976

                     34                     35                     36
                      A                      A                      A
 Frequencies --   3076.0383              3108.4257              3151.5842
 Red. masses --      1.0354                 1.0608                 1.1014
 Frc consts  --      5.7719                 6.0390                 6.4457
 IR Inten    --     10.3339                18.4009                15.3506

                     37                     38                     39
                      A                      A                      A
 Frequencies --   3155.3866              3176.1621              3837.3351
 Red. masses --      1.1049                 1.1074                 1.0666
 Frc consts  --      6.4813                 6.5820                 9.2537
 IR Inten    --      2.0094                14.7595               152.6127

 - Thermochemistry -
 -------------------
 Temperature   298.150 Kelvin.  Pressure   1.00000 Atm.
 Atom     1 has atomic number  8 and mass  15.99491

 Molecular mass:   115.03952 amu.
 Principal axes and moments of inertia in atomic units:
                           1         2         3
     Eigenvalues --   287.019942619.311702731.91819
           X            0.99993   0.00846  -0.00847
           Y           -0.00854   0.99992  -0.00936
           Z            0.00839   0.00943   0.99992
 This molecule is an asymmetric top.
 Rotational symmetry number  1.
 Rotational temperatures (Kelvin)      0.30177     0.03307     0.03170
 Rotational constants (GHZ):           6.28786     0.68901     0.66061
    1 imaginary frequencies ignored.
 Zero-point vibrational energy     282858.5 (Joules/Mol)
                                   67.60480 (Kcal/Mol)
 Warning -- explicit consideration of  14 degrees of freedom as
           vibrations may cause significant error
 Vibrational temperatures:     54.14    75.59   118.56   167.47   208.55
          (Kelvin)            238.12   320.93   368.16   466.96   483.93
                              609.82   805.75   827.42   868.92  1115.90
                             1148.61  1286.08  1336.06  1547.22  1622.03
                             1729.52  1784.30  1850.96  1938.02  2015.99
                             2058.48  2147.61  2160.39  2178.25  2524.13
                             2644.62  3274.37  4425.73  4472.33  4534.43
                             4539.90  4569.79  5521.07

 Zero-point correction=                           0.107735 (Hartree/Particle)
 Thermal correction to Energy=                    0.117974
 Thermal correction to Enthalpy=                  0.118919
 Thermal correction to Gibbs Free Energy=         0.070241
 Sum of electronic and zero-point Energies=           -420.066726
 Sum of electronic and thermal Energies=              -420.056486
 Sum of electronic and thermal Enthalpies=            -420.055542
 Sum of electronic and thermal Free Energies=         -420.104219

                     E (Thermal)             CV                S
                      KCal/Mol        Cal/Mol-Kelvin    Cal/Mol-Kelvin
 Total                   74.030             33.063            102.450
 Electronic               0.000              0.000              1.377
 Translational            0.889              2.981             40.136
 Rotational               0.889              2.981             29.109
 Vibrational             72.253             27.101             31.828
 Vibration     1          0.594              1.982              5.380
 Vibration     2          0.596              1.977              4.720
 Vibration     3          0.600              1.961              3.833
 Vibration     4          0.608              1.936              3.159
 Vibration     5          0.616              1.908              2.737
 Vibration     6          0.624              1.885              2.486
 Vibration     7          0.649              1.806              1.934
 Vibration     8          0.666              1.753              1.690
 Vibration     9          0.709              1.626              1.287
 Vibration    10          0.717              1.603              1.229
 Vibration    11          0.786              1.418              0.879
 Vibration    12          0.916              1.118              0.524
 Vibration    13          0.931              1.085              0.495
 Vibration    14          0.962              1.023              0.443

 1\1\GINC-AJ\Freq\UM062X\6-311++G(d,p)\C5H7O3(2)\AAYUSH\23-Jun-2025\0\\
 # freq 6-311++g(d,p) m062x\\Title Card Required\\0,2\O,4.557788,-0.255
 08,0.321131\H,4.601868,0.644735,-0.034536\C,2.261022,-0.311117,-0.0764
 2\H,3.626442,-0.636766,-0.054197\C,1.102606,0.026414,-0.105725\C,-0.30
 4656,0.403068,-0.189382\O,-0.690622,1.531755,-0.062698\O,-1.073488,-0.
 657004,-0.424447\C,-2.492397,-0.406292,-0.509698\C,-3.107021,-0.283882
 ,0.870562\H,-2.879326,-1.268949,-1.048828\H,-2.652286,0.495786,-1.1013
 1\H,-4.188896,-0.170107,0.779171\H,-2.901939,-1.179232,1.459121\H,-2.7

 Normal termination of Gaussian 16 at Mon Jun 23 00:55:37 2025.
