 Gaussian 16, Revision A.03,
 Gaussian 16:  ES64L-G16RevA.03 25-Dec-2016

 --------------------------
 # ccsd(t)/6-311++g(d,p) sp
 --------------------------

 -------------------
 Title Card Required
 -------------------
 Symbolic Z-matrix:
 Charge =  0 Multiplicity = 2

                         Standard orientation:
 ---------------------------------------------------------------------
 Center     Atomic      Atomic             Coordinates (Angstroms)
 Number     Number       Type             X           Y           Z
 ---------------------------------------------------------------------
      1          8           0        4.558901   -0.256494    0.320068
      2          1           0        4.605858    0.646989   -0.030983
      3          6           0        2.264035   -0.312422   -0.077190
      4          1           0        3.549029   -0.623674   -0.046550
      5          6           0        1.105021    0.024877   -0.106246
      6          6           0       -0.303106    0.403106   -0.189078
      7          8           0       -0.689584    1.531772   -0.062439
      8          8           0       -1.072983   -0.656750   -0.424552
      9          6           0       -2.491801   -0.405611   -0.509623
     10          6           0       -3.106394   -0.283343    0.870700
     11          1           0       -2.879081   -1.268060   -1.048882
     12          1           0       -2.651608    0.496638   -1.101002
     13          1           0       -4.188261   -0.169251    0.779444
     14          1           0       -2.901482   -1.178860    1.459075
     15          1           0       -2.711659    0.588339    1.392902
 ---------------------------------------------------------------------

 SCF Done:  E(UHF) =  -417.937141566     A.U. after   39 cycles
 E2 =    -0.1271183416D+01 EUMP2 =    -0.41920832498258D+03
 CCSD(T)= -0.41932472054D+03

 The electronic state is 2-A.
 Alpha  occ. eigenvalues --  -20.66854 -20.61379 -20.55893 -11.41666 -11.29812
 Alpha  occ. eigenvalues --  -11.28667 -11.24754 -11.22654  -1.48183  -1.44617
 Alpha  occ. eigenvalues --   -1.37798  -1.07520  -1.04333  -0.92716  -0.84521
 Alpha  occ. eigenvalues --   -0.81332  -0.75956  -0.71231  -0.69430  -0.66348
 Alpha  occ. eigenvalues --   -0.63497  -0.60329  -0.58440  -0.56714  -0.54610
 Alpha  occ. eigenvalues --   -0.54092  -0.50622  -0.47847  -0.46177  -0.43652
 Alpha  occ. eigenvalues --   -0.43385
 Alpha virt. eigenvalues --    0.03965   0.04406   0.05937   0.06543   0.07207
 Alpha virt. eigenvalues --    0.08248   0.09248   0.09409   0.11547   0.12570
 Alpha virt. eigenvalues --    0.13518   0.13720   0.14716   0.15799   0.16346

  Beta  occ. eigenvalues --  -20.63668 -20.61398 -20.56377 -11.41302 -11.29818
  Beta  occ. eigenvalues --  -11.26232 -11.24941 -11.22656  -1.48427  -1.38581
  Beta  occ. eigenvalues --   -1.33284  -1.07565  -1.03201  -0.91435  -0.82803
  Beta  occ. eigenvalues --   -0.76146  -0.73668  -0.69902  -0.66765  -0.63729
  Beta  occ. eigenvalues --   -0.60470  -0.58729  -0.55590  -0.54399  -0.54231
  Beta  occ. eigenvalues --   -0.50749  -0.48666  -0.47351  -0.42392  -0.42000
  Beta virt. eigenvalues --   -0.00171   0.04266   0.05358   0.05932   0.06567
  Beta virt. eigenvalues --    0.07286   0.08304   0.09331   0.10073   0.11945
  Beta virt. eigenvalues --    0.12827   0.13615   0.14048   0.15034   0.15657

 Mulliken charges and spin densities:
               1          2
     1  O   -0.231186   0.687226
     2  H    0.277014  -0.029722
     3  C   -0.671895   1.344693
     4  H    0.417986  -0.155316
     5  C    1.284146  -0.872829
     6  C   -0.978015   0.122034
     7  O   -0.283065  -0.099083
     8  O   -0.085790   0.002669
     9  C   -0.164413   0.001714
    10  C   -0.359580  -0.000810
    11  H    0.167032  -0.000201
    12  H    0.175137  -0.000037
    13  H    0.134665  -0.000106
    14  H    0.144713  -0.000115
    15  H    0.173251  -0.000117
 Sum of Mulliken charges =  -0.00000   1.00000

 Dipole moment (field-independent basis, Debye):
    X=              0.0148    Y=             -0.4644    Z=             -0.8741  Tot=              0.9899
 Quadrupole moment (field-independent basis, Debye-Ang):
   XX=            -31.9409   YY=            -52.7802   ZZ=            -48.0439
   XY=              8.1360   XZ=             -2.5048   YZ=             -0.4330

 23\PMP3-0=-419.2498725\MP4SDQ=-419.2623354\CCSD=-419.2692755\CCSD(T)=-
 Normal termination of Gaussian 16 at Tue Aug 19 05:37:57 2025.
