 Gaussian 16, Revision A.03,
 Gaussian 16:  ES64L-G16RevA.03 25-Dec-2016

 --------------------------
 # ccsd(t)/6-311++g(d,p) sp
 --------------------------

 -------------------
 Title Card Required
 -------------------
 Symbolic Z-matrix:
 Charge =  0 Multiplicity = 2

                         Standard orientation:
 ---------------------------------------------------------------------
 Center     Atomic      Atomic             Coordinates (Angstroms)
 Number     Number       Type             X           Y           Z
 ---------------------------------------------------------------------
      1          8           0        4.560561   -0.256769    0.320732
      2          1           0        4.608118    0.648330   -0.029009
      3          6           0        2.265527   -0.313129   -0.077114
      4          1           0        3.496192   -0.621679   -0.047643
      5          6           0        1.106358    0.024073   -0.106299
      6          6           0       -0.302148    0.403126   -0.189045
      7          8           0       -0.688972    1.531820   -0.062856
      8          8           0       -1.072582   -0.656727   -0.424507
      9          6           0       -2.491314   -0.405390   -0.509775
     10          6           0       -3.106102   -0.282747    0.870451
     11          1           0       -2.878722   -1.267900   -1.048884
     12          1           0       -2.651003    0.496764   -1.101337
     13          1           0       -4.187956   -0.168526    0.779074
     14          1           0       -2.901359   -1.178167    1.459044
     15          1           0       -2.711264    0.588985    1.392487
 ---------------------------------------------------------------------

 SCF Done:  E(UHF) =  -417.942846563     A.U. after   40 cycles
 E2 =    -0.1270814232D+01 EUMP2 =    -0.41921366079500D+03
 CCSD(T)= -0.41932719402D+03

 The electronic state is 2-A.
 Alpha  occ. eigenvalues --  -20.67860 -20.61199 -20.55675 -11.41426 -11.29675
 Alpha  occ. eigenvalues --  -11.27563 -11.24438 -11.22540  -1.47985  -1.45434
 Alpha  occ. eigenvalues --   -1.37630  -1.07084  -1.03979  -0.92473  -0.84617
 Alpha  occ. eigenvalues --   -0.81345  -0.75766  -0.72351  -0.69256  -0.66174
 Alpha  occ. eigenvalues --   -0.63370  -0.61437  -0.58316  -0.56713  -0.54501
 Alpha  occ. eigenvalues --   -0.53963  -0.50487  -0.47645  -0.46046  -0.42781
 Alpha  occ. eigenvalues --   -0.42539
 Alpha virt. eigenvalues --    0.03844   0.04415   0.06009   0.06561   0.07189
 Alpha virt. eigenvalues --    0.08310   0.09371   0.09565   0.11671   0.12665
 Alpha virt. eigenvalues --    0.13637   0.13840   0.14825   0.15729   0.16484

  Beta  occ. eigenvalues --  -20.64328 -20.61216 -20.56088 -11.41119 -11.29680
  Beta  occ. eigenvalues --  -11.25723 -11.24548 -11.22541  -1.48193  -1.38301
  Beta  occ. eigenvalues --   -1.32634  -1.07231  -1.03014  -0.91363  -0.82734
  Beta  occ. eigenvalues --   -0.76022  -0.73865  -0.69653  -0.66536  -0.63684
  Beta  occ. eigenvalues --   -0.61657  -0.58536  -0.55369  -0.54925  -0.54109
  Beta  occ. eigenvalues --   -0.50594  -0.48372  -0.47091  -0.41834  -0.41483
  Beta virt. eigenvalues --    0.00531   0.04332   0.05348   0.06004   0.06593
  Beta virt. eigenvalues --    0.07262   0.08368   0.09400   0.10071   0.12042
  Beta virt. eigenvalues --    0.12895   0.13706   0.14152   0.15103   0.15701

 Mulliken charges and spin densities:
               1          2
     1  O   -0.196217   0.787682
     2  H    0.278049  -0.033075
     3  C   -0.696726   1.104215
     4  H    0.422359  -0.134120
     5  C    1.275216  -0.748501
     6  C   -0.980615   0.105627
     7  O   -0.286259  -0.084516
     8  O   -0.085526   0.002355
     9  C   -0.163909   0.001444
    10  C   -0.359505  -0.000620
    11  H    0.166457  -0.000169
    12  H    0.174852  -0.000023
    13  H    0.134067  -0.000089
    14  H    0.144461  -0.000108
    15  H    0.173295  -0.000102
 Sum of Mulliken charges =  -0.00000   1.00000

 Dipole moment (field-independent basis, Debye):
    X=              0.4550    Y=             -0.4491    Z=             -0.8063  Tot=              1.0290
 Quadrupole moment (field-independent basis, Debye-Ang):
   XX=            -29.1839   YY=            -52.9175   ZZ=            -48.1112
   XY=              8.1272   XZ=             -2.2235   YZ=             -0.4596

 Normal termination of Gaussian 16 at Wed Jul  2 14:01:02 2025.
