 Gaussian 16, Revision A.03,
 Gaussian 16:  ES64L-G16RevA.03 25-Dec-2016

 --------------------------
 # freq 6-311++g(d,p) m062x
 --------------------------

 -------------------
 Title Card Required
 -------------------
 Symbolic Z-matrix:
 Charge =  0 Multiplicity = 2

                         Standard orientation:
 ---------------------------------------------------------------------
 Center     Atomic      Atomic             Coordinates (Angstroms)
 Number     Number       Type             X           Y           Z
 ---------------------------------------------------------------------
      1          8           0        4.564090   -0.256626    0.320871
      2          1           0        4.611609    0.650114   -0.027930
      3          6           0        2.266784   -0.314002   -0.077565
      4          1           0        3.417580   -0.624677   -0.055054
      5          6           0        1.108089    0.023032   -0.106630
      6          6           0       -0.300822    0.403175   -0.188978
      7          8           0       -0.688159    1.531920   -0.063594
      8          8           0       -1.072108   -0.656781   -0.423937
      9          6           0       -2.490733   -0.405214   -0.509146
     10          6           0       -3.105413   -0.281707    0.871085
     11          1           0       -2.878468   -1.267952   -1.047714
     12          1           0       -2.650450    0.496657   -1.101144
     13          1           0       -4.187276   -0.167351    0.779818
     14          1           0       -2.900720   -1.176836    1.460154
     15          1           0       -2.710294    0.590237    1.392551
 ---------------------------------------------------------------------

 SCF Done:  E(UM062X) =  -420.181320623     A.U. after   22 cycles

 The electronic state is 2-A.
 Alpha  occ. eigenvalues --  -19.71451 -19.68446 -19.63296 -10.70796 -10.60741
 Alpha  occ. eigenvalues --  -10.57801 -10.56912 -10.53913  -1.25790  -1.18948
 Alpha  occ. eigenvalues --   -1.16502  -0.90389  -0.86936  -0.78096  -0.71081
 Alpha  occ. eigenvalues --   -0.67132  -0.64113  -0.58610  -0.58555  -0.56521
 Alpha  occ. eigenvalues --   -0.53858  -0.49494  -0.47609  -0.46833  -0.45607
 Alpha  occ. eigenvalues --   -0.44514  -0.42170  -0.39485  -0.38669  -0.37128
 Alpha  occ. eigenvalues --   -0.36157
 Alpha virt. eigenvalues --   -0.01574  -0.00719   0.00108   0.01812   0.02342
 Alpha virt. eigenvalues --    0.02742   0.03875   0.05296   0.05455   0.06494
 Alpha virt. eigenvalues --    0.07043   0.07939   0.08295   0.08884   0.10233

  Beta  occ. eigenvalues --  -19.70053 -19.68450 -19.63292 -10.70789 -10.60741
  Beta  occ. eigenvalues --  -10.57307 -10.56833 -10.53913  -1.25790  -1.16496
  Beta  occ. eigenvalues --   -1.13005  -0.90147  -0.86392  -0.77783  -0.70183
  Beta  occ. eigenvalues --   -0.64525  -0.62497  -0.58566  -0.56551  -0.54348
  Beta  occ. eigenvalues --   -0.53051  -0.49469  -0.46833  -0.45492  -0.43705
  Beta  occ. eigenvalues --   -0.42172  -0.39264  -0.38661  -0.36506  -0.35886
  Beta virt. eigenvalues --   -0.15062  -0.01201  -0.00306   0.00217   0.01820
  Beta virt. eigenvalues --    0.02389   0.02848   0.03999   0.05457   0.05689
  Beta virt. eigenvalues --    0.06668   0.07136   0.07954   0.08446   0.08944

 Mulliken charges and spin densities:
               1          2
     1  O   -0.225405   0.762055
     2  H    0.268079  -0.018704
     3  C   -0.656723   0.285177
     4  H    0.391090  -0.025508
     5  C    1.138121   0.030346
     6  C   -0.933384  -0.033675
     7  O   -0.213090   0.000925
     8  O    0.009012   0.000208
     9  C   -0.280874  -0.000977
    10  C   -0.402952   0.000269
    11  H    0.196549  -0.000077
    12  H    0.193290   0.000092
    13  H    0.164915  -0.000003
    14  H    0.166952  -0.000009
    15  H    0.184419  -0.000118
 Sum of Mulliken charges =  -0.00000   1.00000

 Dipole moment (field-independent basis, Debye):
    X=             -0.4272    Y=             -0.3018    Z=             -0.7914  Tot=              0.9486
 Quadrupole moment (field-independent basis, Debye-Ang):
   XX=            -32.9985   YY=            -52.2396   ZZ=            -48.0803
   XY=              8.0389   XZ=             -2.4645   YZ=             -0.4165

  Exact polarizability: 127.941  -5.728  60.335   2.256   0.497  50.242
 Approx polarizability: 115.659 -11.607  78.718   3.317   1.304  57.290

 ******    3 imaginary frequencies (negative Signs) ******

                      1                      2                      3
                      A                      A                      A
 Frequencies --   -969.2986              -182.5093              -104.7881
 Red. masses --      1.2150                 2.6261                 6.1267
 Frc consts  --      0.6726                 0.0515                 0.0396
 IR Inten    --    239.8349                12.7109                 6.0712

                      4                      5                      6
                      A                      A                      A
 Frequencies --     76.3435               114.3584               153.9689
 Red. masses --      3.6559                 3.5510                 2.9284
 Frc consts  --      0.0126                 0.0274                 0.0409
 IR Inten    --      1.3275                 0.7576                20.4497

                      7                      8                      9
                      A                      A                      A
 Frequencies --    180.6481               226.7205               280.3268
 Red. masses --      1.5682                 1.2782                 3.6407
 Frc consts  --      0.0302                 0.0387                 0.1686
 IR Inten    --     84.2556                 2.2142                19.5912

                     10                     11                     12
                      A                      A                      A
 Frequencies --    337.7954               419.7648               466.5983
 Red. masses --      2.9517                 4.6333                 4.0290
 Frc consts  --      0.1984                 0.4810                 0.5168
 IR Inten    --      9.0585                 2.3640                 1.8024

                     13                     14                     15
                      A                      A                      A
 Frequencies --    575.3792               641.4942               703.5100
 Red. masses --      4.9743                 3.1734                 1.3691
 Frc consts  --      0.9703                 0.7694                 0.3992
 IR Inten    --     16.5358                12.2488               157.1752

                     16                     17                     18
                      A                      A                      A
 Frequencies --    782.9167               797.2660               884.9352
 Red. masses --      8.0267                 1.2593                 2.2563
 Frc consts  --      2.8988                 0.4716                 1.0410
 IR Inten    --     25.4629                 4.2913                72.9803

                     19                     20                     21
                      A                      A                      A
 Frequencies --    901.6087               965.7997              1077.5286
 Red. masses --      2.0920                 1.8292                 3.9473
 Frc consts  --      1.0019                 1.0053                 2.7003
 IR Inten    --     23.2078                51.6518                32.4149

                     22                     23                     24
                      A                      A                      A
 Frequencies --   1127.4055              1202.0078              1280.7247
 Red. masses --      2.0823                 1.7697                 3.8017
 Frc consts  --      1.5594                 1.5065                 3.6740
 IR Inten    --     26.5630                 4.7462               696.9186

                     25                     26                     27
                      A                      A                      A
 Frequencies --   1346.4000              1400.0558              1429.1125
 Red. masses --      1.1986                 1.2595                 1.3494
 Frc consts  --      1.2801                 1.4545                 1.6238
 IR Inten    --     86.3061                20.2674                11.2404

                     28                     29                     30
                      A                      A                      A
 Frequencies --   1475.0214              1492.5309              1501.7376
 Red. masses --      1.2653                 1.0413                 1.0713
 Frc consts  --      1.6220                 1.3667                 1.4234
 IR Inten    --     98.1858                11.0026                 8.0733

                     31                     32                     33
                      A                      A                      A
 Frequencies --   1514.1640              1838.0529              2346.9612
 Red. masses --      1.0822                11.9060                 8.8371
 Frc consts  --      1.4618                23.6992                28.6794
 IR Inten    --     26.0817               364.8186                44.1178

                     34                     35                     36
                      A                      A                      A
 Frequencies --   3075.7521              3108.0051              3151.0435
 Red. masses --      1.0354                 1.0607                 1.1015
 Frc consts  --      5.7709                 6.0367                 6.4435
 IR Inten    --     10.6703                18.8614                15.5303

                     37                     38                     39
                      A                      A                      A
 Frequencies --   3155.0190              3175.6145              3787.5411
 Red. masses --      1.1049                 1.1074                 1.0667
 Frc consts  --      6.4799                 6.5795                 9.0161
 IR Inten    --      2.1999                15.0759                92.1932

 - Thermochemistry -
 -------------------
 Temperature   298.150 Kelvin.  Pressure   1.00000 Atm.
 Atom     1 has atomic number  8 and mass  15.99491

 Molecular mass:   115.03952 amu.
 Principal axes and moments of inertia in atomic units:
                           1         2         3
     Eigenvalues --   287.003902617.767772730.35476
           X            0.99993   0.00873  -0.00840
           Y           -0.00881   0.99992  -0.00928
           Z            0.00831   0.00935   0.99992
 This molecule is an asymmetric top.
 Rotational symmetry number  1.
 Rotational temperatures (Kelvin)      0.30179     0.03309     0.03172
 Rotational constants (GHZ):           6.28821     0.68942     0.66099
    3 imaginary frequencies ignored.
 Zero-point vibrational energy     281087.2 (Joules/Mol)
                                   67.18146 (Kcal/Mol)
 Warning -- explicit consideration of  10 degrees of freedom as
           vibrations may cause significant error
 Vibrational temperatures:    109.84   164.54   221.53   259.91   326.20
          (Kelvin)            403.33   486.01   603.95   671.33   827.84
                              922.97  1012.19  1126.44  1147.09  1273.22
                             1297.21  1389.57  1550.32  1622.09  1729.42
                             1842.68  1937.17  2014.37  2056.17  2122.23
                             2147.42  2160.67  2178.54  2644.55  3376.75
                             4425.32  4471.73  4533.65  4539.37  4569.00
                             5449.43

 Zero-point correction=                           0.107060 (Hartree/Particle)
 Thermal correction to Energy=                    0.115353
 Thermal correction to Enthalpy=                  0.116297
 Thermal correction to Gibbs Free Energy=         0.072895
 Sum of electronic and zero-point Energies=           -420.074260
 Sum of electronic and thermal Energies=              -420.065968
 Sum of electronic and thermal Enthalpies=            -420.065024
 Sum of electronic and thermal Free Energies=         -420.108426

                     E (Thermal)             CV                S
                      KCal/Mol        Cal/Mol-Kelvin    Cal/Mol-Kelvin
 Total                   72.385             28.689             91.347
 Electronic               0.000              0.000              1.377
 Translational            0.889              2.981             40.136
 Rotational               0.889              2.981             29.107
 Vibrational             70.608             22.727             20.727
 Vibration     1          0.599              1.965              3.983
 Vibration     2          0.607              1.938              3.194
 Vibration     3          0.619              1.898              2.623
 Vibration     4          0.630              1.866              2.322
 Vibration     5          0.650              1.800              1.905
 Vibration     6          0.680              1.710              1.532
 Vibration     7          0.718              1.600              1.223
 Vibration     8          0.782              1.427              0.893
 Vibration     9          0.824              1.324              0.747
 Vibration    10          0.932              1.085              0.494

 1\1\GINC-AJ\Freq\UM062X\6-311++G(d,p)\C5H7O3(2)\AAYUSH\23-Jun-2025\0\\
 # freq 6-311++g(d,p) m062x\\Title Card Required\\0,2\O,4.56409,-0.2566
 26,0.320871\H,4.611609,0.650114,-0.02793\C,2.266784,-0.314002,-0.07756
 5\H,3.41758,-0.624677,-0.055054\C,1.108089,0.023032,-0.10663\C,-0.3008
 22,0.403175,-0.188978\O,-0.688159,1.53192,-0.063594\O,-1.072108,-0.656
 781,-0.423937\C,-2.490733,-0.405214,-0.509146\C,-3.105413,-0.281707,0.
 871085\H,-2.878468,-1.267952,-1.047714\H,-2.65045,0.496657,-1.101144\H
 ,-4.187276,-0.167351,0.779818\H,-2.90072,-1.176836,1.460154\H,-2.71029

 Normal termination of Gaussian 16 at Mon Jun 23 00:59:57 2025.
