 Gaussian 16, Revision A.03,
 Gaussian 16:  ES64L-G16RevA.03 25-Dec-2016

 --------------------------
 # ccsd(t)/6-311++g(d,p) sp
 --------------------------

 -------------------
 Title Card Required
 -------------------
 Symbolic Z-matrix:
 Charge =  0 Multiplicity = 2

                         Standard orientation:
 ---------------------------------------------------------------------
 Center     Atomic      Atomic             Coordinates (Angstroms)
 Number     Number       Type             X           Y           Z
 ---------------------------------------------------------------------
      1          8           0        4.558051   -0.253680    0.322087
      2          1           0        4.598760    0.643073   -0.038477
      3          6           0        2.258692   -0.310087   -0.075928
      4          1           0        3.674656   -0.651378   -0.067115
      5          6           0        1.100735    0.027683   -0.105315
      6          6           0       -0.305785    0.403132   -0.189484
      7          8           0       -0.691401    1.531818   -0.062532
      8          8           0       -1.073853   -0.657120   -0.424343
      9          6           0       -2.492804   -0.406735   -0.509576
     10          6           0       -3.107338   -0.284428    0.870708
     11          1           0       -2.879528   -1.269469   -1.048698
     12          1           0       -2.652829    0.495305   -1.101208
     13          1           0       -4.189231   -0.170890    0.779329
     14          1           0       -2.902063   -1.179732    1.459265
     15          1           0       -2.713136    0.587566    1.392792
 ---------------------------------------------------------------------

 SCF Done:  E(UHF) =  -417.935373510     A.U. after   31 cycles
 E2 =    -0.1268104250D+01 EUMP2 =    -0.41920347776028D+03
 CCSD(T)= -0.41932299184D+03

 The electronic state is 2-A.
 Alpha  occ. eigenvalues --  -20.62476 -20.62020 -20.56656 -11.42466 -11.31401
 Alpha  occ. eigenvalues --  -11.30281 -11.26074 -11.23041  -1.48887  -1.41024
 Alpha  occ. eigenvalues --   -1.38453  -1.09144  -1.05216  -0.93505  -0.84601
 Alpha  occ. eigenvalues --   -0.80202  -0.76564  -0.70085  -0.67793  -0.66934
 Alpha  occ. eigenvalues --   -0.63932  -0.58920  -0.57230  -0.56149  -0.55047
 Alpha  occ. eigenvalues --   -0.54534  -0.51098  -0.48726  -0.47081  -0.45727
 Alpha  occ. eigenvalues --   -0.45556
 Alpha virt. eigenvalues --    0.03962   0.04719   0.05696   0.06395   0.07303
 Alpha virt. eigenvalues --    0.08072   0.08463   0.09125   0.11192   0.12253
 Alpha virt. eigenvalues --    0.13088   0.13371   0.14417   0.15671   0.15981

  Beta  occ. eigenvalues --  -20.62037 -20.60430 -20.57260 -11.42002 -11.30288
  Beta  occ. eigenvalues --  -11.27838 -11.26299 -11.23042  -1.49186  -1.39425
  Beta  occ. eigenvalues --   -1.34129  -1.08659  -1.03888  -0.91911  -0.83320
  Beta  occ. eigenvalues --   -0.76718  -0.72619  -0.70670  -0.67497  -0.64218
  Beta  occ. eigenvalues --   -0.59381  -0.58629  -0.56272  -0.54769  -0.52733
  Beta  occ. eigenvalues --   -0.51263  -0.49555  -0.48077  -0.44038  -0.43591
  Beta virt. eigenvalues --   -0.00743   0.04044   0.05660   0.05841   0.06404
  Beta virt. eigenvalues --    0.07365   0.08161   0.09107   0.09915   0.11631
  Beta virt. eigenvalues --    0.12567   0.13306   0.13661   0.14815   0.15504

 Mulliken charges and spin densities:
               1          2
     1  O   -0.341867   0.386646
     2  H    0.270569  -0.018472
     3  C   -0.587347   1.804226
     4  H    0.383681  -0.138797
     5  C    1.323665  -1.059897
     6  C   -0.963266   0.147323
     7  O   -0.273905  -0.124695
     8  O   -0.086407   0.003264
     9  C   -0.165942   0.002318
    10  C   -0.359918  -0.001183
    11  H    0.168901  -0.000243
    12  H    0.176248  -0.000097
    13  H    0.136698  -0.000122
    14  H    0.145595  -0.000117
    15  H    0.173293  -0.000153
 Sum of Mulliken charges =  -0.00000   1.00000

 Dipole moment (field-independent basis, Debye):
    X=             -1.4624    Y=             -0.5895    Z=             -1.1702  Tot=              1.9635
 Quadrupole moment (field-independent basis, Debye-Ang):
   XX=            -41.2504   YY=            -52.2914   ZZ=            -47.8656
   XY=              7.8280   XZ=             -3.8010   YZ=             -0.3087

 Normal termination of Gaussian 16 at Sat Jun 28 20:54:17 2025.
