 Gaussian 16, Revision A.03,
 Gaussian 16:  ES64L-G16RevA.03 25-Dec-2016

 -------------------
 # freq 6-31+g m062x
 -------------------

 -------------------
 Title Card Required
 -------------------
 Symbolic Z-matrix:
 Charge =  0 Multiplicity = 2

                         Standard orientation:
 ---------------------------------------------------------------------
 Center     Atomic      Atomic             Coordinates (Angstroms)
 Number     Number       Type             X           Y           Z
 ---------------------------------------------------------------------
      1          8           0        4.560373   -0.248570    0.327721
      2          1           0        4.590474    0.638413   -0.051910
      3          6           0        2.253053   -0.307384   -0.072940
      4          1           0        3.782961   -0.698302   -0.115114
      5          6           0        1.096047    0.030711   -0.103770
      6          6           0       -0.308543    0.403212   -0.190396
      7          8           0       -0.693661    1.532062   -0.064891
      8          8           0       -1.074705   -0.658192   -0.423128
      9          6           0       -2.493606   -0.408893   -0.509156
     10          6           0       -3.108311   -0.284377    0.870804
     11          1           0       -2.879740   -1.272806   -1.046780
     12          1           0       -2.653953    0.491989   -1.102476
     13          1           0       -4.190245   -0.171664    0.779005
     14          1           0       -2.902616   -1.178469    1.461048
     15          1           0       -2.714772    0.588827    1.391360
 ---------------------------------------------------------------------

 SCF Done:  E(UM062X) =  -419.916515337     A.U. after   22 cycles

 The electronic state is 2-A.
 Alpha  occ. eigenvalues --  -19.71269 -19.70883 -19.66947 -10.73622 -10.62451
 Alpha  occ. eigenvalues --  -10.62056 -10.59497 -10.54995  -1.28691  -1.20759
 Alpha  occ. eigenvalues --   -1.19319  -0.92035  -0.88526  -0.79100  -0.71592
 Alpha  occ. eigenvalues --   -0.68171  -0.64976  -0.59043  -0.57384  -0.55270
 Alpha  occ. eigenvalues --   -0.54325  -0.50077  -0.47442  -0.46519  -0.45894
 Alpha  occ. eigenvalues --   -0.42946  -0.42230  -0.40195  -0.38946  -0.38589
 Alpha  occ. eigenvalues --   -0.37387
 Alpha virt. eigenvalues --   -0.02433   0.01393   0.02087   0.03305   0.03738
 Alpha virt. eigenvalues --    0.04581   0.04819   0.06407   0.07279   0.08285
 Alpha virt. eigenvalues --    0.08773   0.09008   0.09155   0.10549   0.12333

  Beta  occ. eigenvalues --  -19.71279 -19.70076 -19.66951 -10.73598 -10.62057
  Beta  occ. eigenvalues --  -10.61327 -10.59409 -10.54995  -1.28697  -1.19332
  Beta  occ. eigenvalues --   -1.18131  -0.91364  -0.87503  -0.78624  -0.70979
  Beta  occ. eigenvalues --   -0.65694  -0.64873  -0.59064  -0.57430  -0.54676
  Beta  occ. eigenvalues --   -0.50074  -0.49946  -0.47441  -0.45858  -0.43207
  Beta  occ. eigenvalues --   -0.42466  -0.39619  -0.38927  -0.37122  -0.36558
  Beta virt. eigenvalues --   -0.16470  -0.01375   0.01745   0.02206   0.03347
  Beta virt. eigenvalues --    0.04389   0.04673   0.04915   0.06529   0.07576
  Beta virt. eigenvalues --    0.08319   0.08776   0.09049   0.09412   0.10800

 Mulliken charges and spin densities:
               1          2
     1  O   -0.579440   0.327388
     2  H    0.433530  -0.012112
     3  C    1.569904   0.463255
     4  H    0.484322  -0.024943
     5  C   -0.533637   0.204320
     6  C   -1.127466   0.046205
     7  O   -0.349879  -0.002695
     8  O   -0.206792  -0.001216
     9  C   -0.255100   0.000636
    10  C   -0.559500  -0.000624
    11  H    0.222349  -0.000051
    12  H    0.233470  -0.000072
    13  H    0.209775  -0.000108
    14  H    0.221839  -0.000005
    15  H    0.236625   0.000022
 Sum of Mulliken charges =  -0.00000   1.00000

 Dipole moment (field-independent basis, Debye):
    X=             -1.3827    Y=             -0.2482    Z=             -1.4058  Tot=              1.9874
 Quadrupole moment (field-independent basis, Debye-Ang):
   XX=            -39.5877   YY=            -53.0752   ZZ=            -48.4617
   XY=              8.2666   XZ=             -5.3706   YZ=             -0.2214

  Exact polarizability: 140.134  -7.809  60.055   2.343   0.644  46.786
 Approx polarizability: 115.916 -13.609  75.466   3.714   2.321  48.179

 ******    5 imaginary frequencies (negative Signs) ******

                      1                      2                      3
                      A                      A                      A
 Frequencies --   -806.7228              -508.7949              -183.5163
 Red. masses --      1.0247                 1.0530                 1.8859
 Frc consts  --      0.3929                 0.1606                 0.0374
 IR Inten    --     93.1187               142.0428                97.6388

                      4                      5                      6
                      A                      A                      A
 Frequencies --    -76.1507               -24.6297                43.9549
 Red. masses --      6.9110                 2.9755                 4.4526
 Frc consts  --      0.0236                 0.0011                 0.0051
 IR Inten    --      5.0729                 0.6930                15.0379

                      7                      8                      9
                      A                      A                      A
 Frequencies --     74.7001               178.9726               197.2886
 Red. masses --      4.8319                 1.4548                 2.6646
 Frc consts  --      0.0159                 0.0275                 0.0611
 IR Inten    --      6.5114                20.2518                70.3567

                     10                     11                     12
                      A                      A                      A
 Frequencies --    237.6334               306.7006               335.8162
 Red. masses --      3.1724                 3.2295                 3.9302
 Frc consts  --      0.1055                 0.1790                 0.2611
 IR Inten    --     14.5831                 7.7657                94.8665

                     13                     14                     15
                      A                      A                      A
 Frequencies --    423.0085               580.3507               617.3974
 Red. masses --      4.1351                 5.1376                 9.0435
 Frc consts  --      0.4359                 1.0195                 2.0310
 IR Inten    --     11.1917                 2.8973                62.7302

                     16                     17                     18
                      A                      A                      A
 Frequencies --    793.5732               815.3398               899.2445
 Red. masses --      9.2895                 1.2951                 3.3468
 Frc consts  --      3.4468                 0.5073                 1.5945
 IR Inten    --     15.1537                 6.2377                10.2374

                     19                     20                     21
                      A                      A                      A
 Frequencies --    948.1315              1112.4517              1157.4065
 Red. masses --      2.6638                 4.2218                 2.0857
 Frc consts  --      1.4109                 3.0783                 1.6461
 IR Inten    --      2.3786                 7.0935                23.1399

                     22                     23                     24
                      A                      A                      A
 Frequencies --   1227.4141              1326.5723              1371.3850
 Red. masses --      1.7612                 2.0979                 1.6612
 Frc consts  --      1.5633                 2.1751                 1.8407
 IR Inten    --      5.3937               477.1025               349.7626

                     25                     26                     27
                      A                      A                      A
 Frequencies --   1425.6752              1443.4005              1456.3555
 Red. masses --      1.1131                 1.3708                 1.2658
 Frc consts  --      1.3330                 1.6827                 1.5818
 IR Inten    --     59.6811                45.1061                15.3892

                     28                     29                     30
                      A                      A                      A
 Frequencies --   1528.1565              1536.0080              1544.9025
 Red. masses --      1.0422                 1.0759                 1.0678
 Frc consts  --      1.4339                 1.4955                 1.5016
 IR Inten    --     14.9008                 7.5802                23.0594

                     31                     32                     33
                      A                      A                      A
 Frequencies --   1907.5708              2310.6712              2944.6907
 Red. masses --     12.4153                10.5598                 1.0797
 Frc consts  --     26.6175                33.2187                 5.5159
 IR Inten    --    309.3362               219.9347               695.4074

                     34                     35                     36
                      A                      A                      A
 Frequencies --   3108.2625              3138.2980              3188.4205
 Red. masses --      1.0351                 1.0602                 1.1007
 Frc consts  --      5.8920                 6.1523                 6.5931
 IR Inten    --     13.0874                19.8757                12.6894

                     37                     38                     39
                      A                      A                      A
 Frequencies --   3191.3574              3212.3199              3892.5103
 Red. masses --      1.1022                 1.1053                 1.0664
 Frc consts  --      6.6138                 6.7199                 9.5196
 IR Inten    --      7.5224                17.2702               111.7778

 - Thermochemistry -
 -------------------
 Temperature   298.150 Kelvin.  Pressure   1.00000 Atm.
 Atom     1 has atomic number  8 and mass  15.99491

 Molecular mass:   115.03952 amu.
 Principal axes and moments of inertia in atomic units:
                           1         2         3
     Eigenvalues --   287.494382623.784192736.46271
           X            0.99993   0.00793  -0.00887
           Y           -0.00800   0.99993  -0.00827
           Z            0.00880   0.00834   0.99993
 This molecule is an asymmetric top.
 Rotational symmetry number  1.
 Rotational temperatures (Kelvin)      0.30127     0.03301     0.03165
 Rotational constants (GHZ):           6.27748     0.68784     0.65952
    5 imaginary frequencies ignored.
 Zero-point vibrational energy     289950.5 (Joules/Mol)
                                   69.29984 (Kcal/Mol)
 Warning -- explicit consideration of  10 degrees of freedom as
           vibrations may cause significant error
 Vibrational temperatures:     63.24   107.48   257.50   283.85   341.90
          (Kelvin)            441.27   483.16   608.61   835.00   888.30
                             1141.77  1173.09  1293.81  1364.15  1600.57
                             1665.25  1765.98  1908.64  1973.12  2051.23
                             2076.73  2095.37  2198.68  2209.97  2222.77
                             2744.57  3324.54  4236.75  4472.10  4515.31
                             4587.43  4591.65  4621.81  5600.45

 Zero-point correction=                           0.110436 (Hartree/Particle)
 Thermal correction to Energy=                    0.118326
 Thermal correction to Enthalpy=                  0.119270
 Thermal correction to Gibbs Free Energy=         0.075856
 Sum of electronic and zero-point Energies=           -419.806079
 Sum of electronic and thermal Energies=              -419.798190
 Sum of electronic and thermal Enthalpies=            -419.797245
 Sum of electronic and thermal Free Energies=         -419.840660

                     E (Thermal)             CV                S
                      KCal/Mol        Cal/Mol-Kelvin    Cal/Mol-Kelvin
 Total                   74.250             25.820             91.373
 Electronic               0.000              0.000              1.377
 Translational            0.889              2.981             40.136
 Rotational               0.889              2.981             29.114
 Vibrational             72.473             19.858             20.746
 Vibration     1          0.595              1.980              5.072
 Vibration     2          0.599              1.966              4.026
 Vibration     3          0.629              1.868              2.339
 Vibration     4          0.637              1.844              2.158
 Vibration     5          0.656              1.783              1.821
 Vibration     6          0.697              1.661              1.380
 Vibration     7          0.717              1.604              1.232
 Vibration     8          0.785              1.420              0.882
 Vibration     9          0.937              1.074              0.485
 Vibration    10          0.977              0.995              0.421

 Normal termination of Gaussian 16 at Fri Jun 20 12:26:21 2025.
