 Gaussian 16, Revision A.03,
 Gaussian 16:  ES64L-G16RevA.03 25-Dec-2016

 --------------------------
 # freq 6-311++g(d,p) m062x
 --------------------------

 -------------------
 Title Card Required
 -------------------
 Symbolic Z-matrix:
 Charge =  0 Multiplicity = 2

                         Standard orientation:
 ---------------------------------------------------------------------
 Center     Atomic      Atomic             Coordinates (Angstroms)
 Number     Number       Type             X           Y           Z
 ---------------------------------------------------------------------
      1          8           0        4.559645   -0.256634    0.320619
      2          1           0        4.607003    0.647672   -0.029791
      3          6           0        2.264842   -0.312798   -0.077011
      4          1           0        3.522597   -0.622229   -0.046433
      5          6           0        1.105715    0.024447   -0.106227
      6          6           0       -0.302612    0.403090   -0.189121
      7          8           0       -0.689268    1.531786   -0.062850
      8          8           0       -1.072761   -0.656784   -0.424515
      9          6           0       -2.491531   -0.405552   -0.509781
     10          6           0       -3.106292   -0.282946    0.870450
     11          1           0       -2.878851   -1.268089   -1.048892
     12          1           0       -2.651249    0.496586   -1.101357
     13          1           0       -4.188147   -0.168796    0.779067
     14          1           0       -2.901495   -1.178352    1.459040
     15          1           0       -2.711528    0.588816    1.392494
 ---------------------------------------------------------------------

 SCF Done:  E(UM062X) =  -420.176156014     A.U. after   22 cycles

 The electronic state is 2-A.
 Alpha  occ. eigenvalues --  -19.70635 -19.68637 -19.63544 -10.71032 -10.60874
 Alpha  occ. eigenvalues --  -10.58951 -10.57344 -10.54021  -1.26013  -1.18900
 Alpha  occ. eigenvalues --   -1.16732  -0.90685  -0.87230  -0.78261  -0.71056
 Alpha  occ. eigenvalues --   -0.67392  -0.64343  -0.58771  -0.57742  -0.56710
 Alpha  occ. eigenvalues --   -0.54006  -0.49651  -0.47092  -0.46847  -0.45687
 Alpha  occ. eigenvalues --   -0.43485  -0.42259  -0.39735  -0.38850  -0.37582
 Alpha  occ. eigenvalues --   -0.36545
 Alpha virt. eigenvalues --   -0.01856  -0.00574   0.00069   0.01747   0.02329
 Alpha virt. eigenvalues --    0.02711   0.03770   0.05132   0.05401   0.06350
 Alpha virt. eigenvalues --    0.06983   0.07863   0.08248   0.08777   0.10219

  Beta  occ. eigenvalues --  -19.69454 -19.68643 -19.63539 -10.71020 -10.60874
  Beta  occ. eigenvalues --  -10.58197 -10.57253 -10.54021  -1.26014  -1.16726
  Beta  occ. eigenvalues --   -1.14265  -0.90318  -0.86463  -0.77852  -0.70180
  Beta  occ. eigenvalues --   -0.64615  -0.62758  -0.58767  -0.56760  -0.54188
  Beta  occ. eigenvalues --   -0.52205  -0.49628  -0.46990  -0.45631  -0.43620
  Beta  occ. eigenvalues --   -0.42301  -0.39423  -0.38845  -0.36635  -0.36017
  Beta virt. eigenvalues --   -0.16379  -0.01294  -0.00246   0.00231   0.01758
  Beta virt. eigenvalues --    0.02360   0.02861   0.03915   0.05400   0.05662
  Beta virt. eigenvalues --    0.06593   0.07070   0.07881   0.08347   0.08834

 Mulliken charges and spin densities:
               1          2
     1  O   -0.267161   0.605601
     2  H    0.268966  -0.014776
     3  C   -0.657970   0.452379
     4  H    0.430148  -0.034672
     5  C    1.121165   0.045306
     6  C   -0.918739  -0.053961
     7  O   -0.210433   0.001177
     8  O    0.010290   0.000124
     9  C   -0.281283  -0.001242
    10  C   -0.403064   0.000251
    11  H    0.197280  -0.000115
    12  H    0.193560   0.000100
    13  H    0.165506  -0.000013
    14  H    0.167297  -0.000007
    15  H    0.184437  -0.000153
 Sum of Mulliken charges =  -0.00000   1.00000

 Dipole moment (field-independent basis, Debye):
    X=             -0.7780    Y=             -0.2946    Z=             -0.8507  Tot=              1.1898
 Quadrupole moment (field-independent basis, Debye-Ang):
   XX=            -35.0376   YY=            -52.1818   ZZ=            -48.0996
   XY=              8.0458   XZ=             -2.7378   YZ=             -0.3938

  Exact polarizability: 136.468  -6.738  60.787   2.881   0.488  50.472
 Approx polarizability: 121.906 -12.498  79.439   3.869   1.430  57.622

 ******    2 imaginary frequencies (negative Signs) ******

                      1                      2                      3
                      A                      A                      A
 Frequencies --  -1590.7144               -74.0424                34.1235
 Red. masses --      1.0376                 2.8302                 6.8503
 Frc consts  --      1.5470                 0.0091                 0.0047
 IR Inten    --    649.2245                18.2373                 1.9147

                      4                      5                      6
                      A                      A                      A
 Frequencies --     78.6153               116.0394               155.8249
 Red. masses --      3.3421                 3.3959                 3.3705
 Frc consts  --      0.0122                 0.0269                 0.0482
 IR Inten    --      2.5849                 1.2200                17.6648

                      7                      8                      9
                      A                      A                      A
 Frequencies --    182.2819               225.4138               276.0588
 Red. masses --      1.6198                 1.2799                 4.2240
 Frc consts  --      0.0317                 0.0383                 0.1897
 IR Inten    --     77.2155                 2.4402                14.5159

                     10                     11                     12
                      A                      A                      A
 Frequencies --    336.4682               381.4359               428.2271
 Red. masses --      2.9154                 7.9296                 3.7043
 Frc consts  --      0.1945                 0.6797                 0.4002
 IR Inten    --      9.1972                 2.7231                 1.7413

                     13                     14                     15
                      A                      A                      A
 Frequencies --    567.9250               618.8051               671.0537
 Red. masses --      5.4690                 5.1720                 1.1826
 Frc consts  --      1.0393                 1.1669                 0.3138
 IR Inten    --     11.0380                10.4205               173.9435

                     16                     17                     18
                      A                      A                      A
 Frequencies --    779.4366               798.0312               892.8749
 Red. masses --      8.9362                 1.2356                 3.1315
 Frc consts  --      3.1986                 0.4636                 1.4709
 IR Inten    --     22.3664                 2.8505                11.2663

                     19                     20                     21
                      A                      A                      A
 Frequencies --    919.5089              1026.9110              1081.2751
 Red. masses --      2.3084                 1.4522                 3.6640
 Frc consts  --      1.1499                 0.9023                 2.5239
 IR Inten    --      8.6836                59.2772                31.1210

                     22                     23                     24
                      A                      A                      A
 Frequencies --   1127.6521              1202.6421              1285.5744
 Red. masses --      2.0911                 1.7772                 4.1668
 Frc consts  --      1.5667                 1.5145                 4.0574
 IR Inten    --     30.9673                 4.7593               742.8326

                     25                     26                     27
                      A                      A                      A
 Frequencies --   1346.7528              1400.8793              1429.9220
 Red. masses --      1.2092                 1.2711                 1.3537
 Frc consts  --      1.2922                 1.4697                 1.6308
 IR Inten    --    101.0662                26.6446                12.5869

                     28                     29                     30
                      A                      A                      A
 Frequencies --   1446.2449              1492.6083              1501.5091
 Red. masses --      1.0975                 1.0413                 1.0681
 Frc consts  --      1.3525                 1.3669                 1.4188
 IR Inten    --    238.7752                10.6017                 5.4891

                     31                     32                     33
                      A                      A                      A
 Frequencies --   1513.9239              1837.4124              2291.7975
 Red. masses --      1.0778                12.1058                10.7826
 Frc consts  --      1.4554                24.0801                33.3678
 IR Inten    --     21.5650               358.2423                45.5757

                     34                     35                     36
                      A                      A                      A
 Frequencies --   3075.9038              3108.2336              3151.3322
 Red. masses --      1.0354                 1.0607                 1.1014
 Frc consts  --      5.7714                 6.0379                 6.4446
 IR Inten    --     10.5144                18.6771                15.4805

                     37                     38                     39
                      A                      A                      A
 Frequencies --   3155.2117              3175.9052              3808.9343
 Red. masses --      1.1049                 1.1074                 1.0667
 Frc consts  --      6.4806                 6.5808                 9.1177
 IR Inten    --      2.0987                14.9323               128.9634

 - Thermochemistry -
 -------------------
 Temperature   298.150 Kelvin.  Pressure   1.00000 Atm.
 Atom     1 has atomic number  8 and mass  15.99491

 Molecular mass:   115.03952 amu.
 Principal axes and moments of inertia in atomic units:
                           1         2         3
     Eigenvalues --   286.956872618.045252730.63332
           X            0.99993   0.00864  -0.00848
           Y           -0.00872   0.99992  -0.00946
           Z            0.00840   0.00953   0.99992
 This molecule is an asymmetric top.
 Rotational symmetry number  1.
 Rotational temperatures (Kelvin)      0.30184     0.03308     0.03172
 Rotational constants (GHZ):           6.28924     0.68935     0.66092
    2 imaginary frequencies ignored.
 Zero-point vibrational energy     280660.4 (Joules/Mol)
                                   67.07944 (Kcal/Mol)
 Warning -- explicit consideration of  12 degrees of freedom as
           vibrations may cause significant error
 Vibrational temperatures:     49.10   113.11   166.95   224.20   262.26
          (Kelvin)            324.32   397.19   484.10   548.80   616.12
                              817.12   890.32   965.50  1121.44  1148.19
                             1284.65  1322.97  1477.50  1555.71  1622.44
                             1730.33  1849.65  1937.68  2015.55  2057.34
                             2080.82  2147.53  2160.34  2178.20  2643.63
                             3297.39  4425.54  4472.05  4534.06  4539.65
                             4569.42  5480.21

 Zero-point correction=                           0.106898 (Hartree/Particle)
 Thermal correction to Energy=                    0.116141
 Thermal correction to Enthalpy=                  0.117085
 Thermal correction to Gibbs Free Energy=         0.070925
 Sum of electronic and zero-point Energies=           -420.069258
 Sum of electronic and thermal Energies=              -420.060015
 Sum of electronic and thermal Enthalpies=            -420.059071
 Sum of electronic and thermal Free Energies=         -420.105231

                     E (Thermal)             CV                S
                      KCal/Mol        Cal/Mol-Kelvin    Cal/Mol-Kelvin
 Total                   72.879             30.874             97.151
 Electronic               0.000              0.000              1.377
 Translational            0.889              2.981             40.136
 Rotational               0.889              2.981             29.108
 Vibrational             71.102             24.913             26.530
 Vibration     1          0.594              1.983              5.574
 Vibration     2          0.600              1.964              3.925
 Vibration     3          0.608              1.936              3.165
 Vibration     4          0.620              1.896              2.600
 Vibration     5          0.630              1.864              2.305
 Vibration     6          0.650              1.802              1.915
 Vibration     7          0.678              1.718              1.558
 Vibration     8          0.717              1.603              1.229
 Vibration     9          0.751              1.510              1.033
 Vibration    10          0.790              1.409              0.864
 Vibration    11          0.924              1.101              0.508
 Vibration    12          0.979              0.992              0.418

 1\1\GINC-AJ\Freq\UM062X\6-311++G(d,p)\C5H7O3(2)\AAYUSH\23-Jun-2025\0\\
 # freq 6-311++g(d,p) m062x\\Title Card Required\\0,2\O,4.559645,-0.256
 634,0.320619\H,4.607003,0.647672,-0.029791\C,2.264842,-0.312798,-0.077
 011\H,3.522597,-0.622229,-0.046433\C,1.105715,0.024447,-0.106227\C,-0.
 302612,0.40309,-0.189121\O,-0.689268,1.531786,-0.06285\O,-1.072761,-0.
 656784,-0.424515\C,-2.491531,-0.405552,-0.509781\C,-3.106292,-0.282946
 ,0.87045\H,-2.878851,-1.268089,-1.048892\H,-2.651249,0.496586,-1.10135
 7\H,-4.188147,-0.168796,0.779067\H,-2.901495,-1.178352,1.45904\H,-2.71

 Normal termination of Gaussian 16 at Mon Jun 23 00:16:22 2025.
