 Gaussian 16, Revision A.03,
 Gaussian 16:  ES64L-G16RevA.03 25-Dec-2016

 -------------------
 # freq 6-31+g m062x
 -------------------

 -------------------
 Title Card Required
 -------------------
 Symbolic Z-matrix:
 Charge =  0 Multiplicity = 2

                         Standard orientation:
 ---------------------------------------------------------------------
 Center     Atomic      Atomic             Coordinates (Angstroms)
 Number     Number       Type             X           Y           Z
 ---------------------------------------------------------------------
      1          8           0        4.559326   -0.250716    0.325340
      2          1           0        4.593701    0.640355   -0.046032
      3          6           0        2.255224   -0.308508   -0.074232
      4          1           0        3.741009   -0.678777   -0.094130
      5          6           0        1.097885    0.029550   -0.104391
      6          6           0       -0.307464    0.403143   -0.190049
      7          8           0       -0.692697    1.531939   -0.063917
      8          8           0       -1.074344   -0.657744   -0.423643
      9          6           0       -2.493292   -0.407999   -0.509357
     10          6           0       -3.107931   -0.284403    0.870732
     11          1           0       -2.879636   -1.271432   -1.047604
     12          1           0       -2.653483    0.493355   -1.101991
     13          1           0       -4.189845   -0.171348    0.779084
     14          1           0       -2.902423   -1.178994    1.460283
     15          1           0       -2.714141    0.588306    1.391929
 ---------------------------------------------------------------------

 SCF Done:  E(UM062X) =  -419.916774693     A.U. after   23 cycles

 The electronic state is 2-A.
 Alpha  occ. eigenvalues --  -19.71256 -19.71213 -19.66942 -10.73620 -10.62266
 Alpha  occ. eigenvalues --  -10.62048 -10.59483 -10.54989  -1.28674  -1.20806
 Alpha  occ. eigenvalues --   -1.19301  -0.91979  -0.88488  -0.79083  -0.71637
 Alpha  occ. eigenvalues --   -0.68346  -0.64956  -0.59029  -0.57372  -0.55523
 Alpha  occ. eigenvalues --   -0.54448  -0.50065  -0.47435  -0.46455  -0.45889
 Alpha  occ. eigenvalues --   -0.43060  -0.42279  -0.40157  -0.38924  -0.38536
 Alpha  occ. eigenvalues --   -0.37366
 Alpha virt. eigenvalues --   -0.02401   0.01402   0.02086   0.03313   0.03771
 Alpha virt. eigenvalues --    0.04597   0.04832   0.06418   0.07292   0.08291
 Alpha virt. eigenvalues --    0.08778   0.09006   0.09164   0.10563   0.12336

  Beta  occ. eigenvalues --  -19.71266 -19.70348 -19.66944 -10.73597 -10.62049
  Beta  occ. eigenvalues --  -10.61186 -10.59396 -10.54990  -1.28679  -1.19312
  Beta  occ. eigenvalues --   -1.17960  -0.91341  -0.87499  -0.78622  -0.70989
  Beta  occ. eigenvalues --   -0.65609  -0.64824  -0.59048  -0.57412  -0.54672
  Beta  occ. eigenvalues --   -0.50150  -0.50036  -0.47428  -0.45846  -0.43302
  Beta  occ. eigenvalues --   -0.42469  -0.39611  -0.38913  -0.37129  -0.36561
  Beta virt. eigenvalues --   -0.16800  -0.01430   0.01747   0.02207   0.03351
  Beta virt. eigenvalues --    0.04425   0.04675   0.04917   0.06535   0.07572
  Beta virt. eigenvalues --    0.08327   0.08789   0.09045   0.09403   0.10804

 Mulliken charges and spin densities:
               1          2
     1  O   -0.568400   0.364847
     2  H    0.431762  -0.013242
     3  C    1.546264   0.373783
     4  H    0.490718  -0.028816
     5  C   -0.542325   0.252481
     6  C   -1.111395   0.054211
     7  O   -0.349640  -0.002022
     8  O   -0.206618  -0.001073
     9  C   -0.254661   0.000607
    10  C   -0.559702  -0.000576
    11  H    0.222361  -0.000047
    12  H    0.233456  -0.000068
    13  H    0.209757  -0.000101
    14  H    0.221833  -0.000004
    15  H    0.236589   0.000021
 Sum of Mulliken charges =  -0.00000   1.00000

 Dipole moment (field-independent basis, Debye):
    X=             -1.3415    Y=             -0.1893    Z=             -1.3280  Tot=              1.8971
 Quadrupole moment (field-independent basis, Debye-Ang):
   XX=            -39.1995   YY=            -53.1558   ZZ=            -48.4721
   XY=              8.5123   XZ=             -5.0054   YZ=             -0.2701

  Exact polarizability: 139.081  -7.844  59.838   2.578   0.594  46.654
 Approx polarizability: 116.859 -13.730  75.407   3.887   2.237  48.089

 ******    5 imaginary frequencies (negative Signs) ******

                      1                      2                      3
                      A                      A                      A
 Frequencies --   -840.9454              -501.6890              -174.4612
 Red. masses --      1.0273                 1.0530                 2.1932
 Frc consts  --      0.4280                 0.1561                 0.0393
 IR Inten    --    127.9157               134.0772                75.6376

                      4                      5                      6
                      A                      A                      A
 Frequencies --    -73.3206               -23.8014                52.0344
 Red. masses --      6.6388                 2.9802                 4.2761
 Frc consts  --      0.0210                 0.0010                 0.0068
 IR Inten    --      3.9074                 0.6116                13.9616

                      7                      8                      9
                      A                      A                      A
 Frequencies --     86.2489               181.3578               213.6897
 Red. masses --      5.0629                 1.3109                 3.3399
 Frc consts  --      0.0222                 0.0254                 0.0899
 IR Inten    --      6.3123                 8.6474                66.6250

                     10                     11                     12
                      A                      A                      A
 Frequencies --    268.2627               310.8283               362.5312
 Red. masses --      3.1653                 3.1982                 3.0017
 Frc consts  --      0.1342                 0.1821                 0.2324
 IR Inten    --     12.0007                 7.0584               122.1599

                     13                     14                     15
                      A                      A                      A
 Frequencies --    424.7088               582.1911               619.5404
 Red. masses --      4.1743                 5.1214                 8.8722
 Frc consts  --      0.4436                 1.0228                 2.0064
 IR Inten    --     13.4229                 3.6131                59.9053

                     16                     17                     18
                      A                      A                      A
 Frequencies --    795.8750               815.3842               899.0635
 Red. masses --      8.6269                 1.3094                 3.3466
 Frc consts  --      3.2196                 0.5129                 1.5938
 IR Inten    --     14.5971                 5.9899                10.4500

                     19                     20                     21
                      A                      A                      A
 Frequencies --    947.7878              1112.2292              1157.2891
 Red. masses --      2.6567                 4.2226                 2.0838
 Frc consts  --      1.4061                 3.0776                 1.6443
 IR Inten    --      2.5470                 7.1408                22.6655

                     22                     23                     24
                      A                      A                      A
 Frequencies --   1227.2790              1325.8752              1370.5574
 Red. masses --      1.7604                 2.1214                 1.5930
 Frc consts  --      1.5622                 2.1973                 1.7630
 IR Inten    --      5.5671               492.0059               339.8870

                     25                     26                     27
                      A                      A                      A
 Frequencies --   1386.7399              1443.1544              1456.2995
 Red. masses --      1.1540                 1.3690                 1.2652
 Frc consts  --      1.3075                 1.6799                 1.5809
 IR Inten    --     46.6462                48.0579                15.6720

                     28                     29                     30
                      A                      A                      A
 Frequencies --   1528.1477              1535.9769              1544.8728
 Red. masses --      1.0422                 1.0759                 1.0676
 Frc consts  --      1.4339                 1.4956                 1.5013
 IR Inten    --     14.9236                 7.7209                23.0679

                     31                     32                     33
                      A                      A                      A
 Frequencies --   1907.0716              2307.8743              2698.3579
 Red. masses --     12.4145                 8.5100                 1.1097
 Frc consts  --     26.6019                26.7058                 4.7606
 IR Inten    --    310.4166               271.2532               698.8924

                     34                     35                     36
                      A                      A                      A
 Frequencies --   3108.2501              3138.3332              3188.4180
 Red. masses --      1.0351                 1.0602                 1.1007
 Frc consts  --      5.8920                 6.1524                 6.5930
 IR Inten    --     13.2380                19.9987                12.8172

                     37                     38                     39
                      A                      A                      A
 Frequencies --   3191.3497              3212.3229              3883.4945
 Red. masses --      1.1022                 1.1053                 1.0658
 Frc consts  --      6.6138                 6.7199                 9.4706
 IR Inten    --      7.5181                17.3171               113.1959

 - Thermochemistry -
 -------------------
 Temperature   298.150 Kelvin.  Pressure   1.00000 Atm.
 Atom     1 has atomic number  8 and mass  15.99491

 Molecular mass:   115.03952 amu.
 Principal axes and moments of inertia in atomic units:
                           1         2         3
     Eigenvalues --   287.324042622.355472735.01037
           X            0.99993   0.00809  -0.00872
           Y           -0.00817   0.99993  -0.00874
           Z            0.00864   0.00881   0.99992
 This molecule is an asymmetric top.
 Rotational symmetry number  1.
 Rotational temperatures (Kelvin)      0.30145     0.03303     0.03167
 Rotational constants (GHZ):           6.28120     0.68821     0.65987
    5 imaginary frequencies ignored.
 Zero-point vibrational energy     288798.8 (Joules/Mol)
                                   69.02458 (Kcal/Mol)
 Warning -- explicit consideration of  10 degrees of freedom as
           vibrations may cause significant error
 Vibrational temperatures:     74.87   124.09   260.93   307.45   385.97
          (Kelvin)            447.21   521.60   611.06   837.64   891.38
                             1145.09  1173.16  1293.55  1363.66  1600.25
                             1665.08  1765.78  1907.64  1971.93  1995.21
                             2076.38  2095.29  2198.66  2209.93  2222.73
                             2743.85  3320.52  3882.34  4472.08  4515.36
                             4587.42  4591.64  4621.82  5587.48

 Zero-point correction=                           0.109998 (Hartree/Particle)
 Thermal correction to Energy=                    0.117737
 Thermal correction to Enthalpy=                  0.118682
 Thermal correction to Gibbs Free Energy=         0.075816
 Sum of electronic and zero-point Energies=           -419.806777
 Sum of electronic and thermal Energies=              -419.799037
 Sum of electronic and thermal Enthalpies=            -419.798093
 Sum of electronic and thermal Free Energies=         -419.840958

                     E (Thermal)             CV                S
                      KCal/Mol        Cal/Mol-Kelvin    Cal/Mol-Kelvin
 Total                   73.881             25.669             90.217
 Electronic               0.000              0.000              1.377
 Translational            0.889              2.981             40.136
 Rotational               0.889              2.981             29.112
 Vibrational             72.104             19.708             19.592
 Vibration     1          0.596              1.977              4.739
 Vibration     2          0.601              1.959              3.743
 Vibration     3          0.630              1.865              2.314
 Vibration     4          0.644              1.820              2.012
 Vibration     5          0.673              1.731              1.607
 Vibration     6          0.700              1.653              1.358
 Vibration     7          0.736              1.549              1.111
 Vibration     8          0.787              1.416              0.876
 Vibration     9          0.939              1.070              0.481
 Vibration    10          0.980              0.991              0.417

 Normal termination of Gaussian 16 at Fri Jun 20 12:25:37 2025.
