 Gaussian 16, Revision A.03,
 Gaussian 16:  ES64L-G16RevA.03 25-Dec-2016

 --------------------------
 # freq 6-311++g(d,p) m062x
 --------------------------

 -------------------
 Title Card Required
 -------------------
 Symbolic Z-matrix:
 Charge =  0 Multiplicity = 2

                         Standard orientation:
 ---------------------------------------------------------------------
 Center     Atomic      Atomic             Coordinates (Angstroms)
 Number     Number       Type             X           Y           Z
 ---------------------------------------------------------------------
      1          8           0        4.558833   -0.251726    0.324257
      2          1           0        4.595354    0.641287   -0.043336
      3          6           0        2.256384   -0.309055   -0.074801
      4          1           0        3.719379   -0.669351   -0.084483
      5          6           0        1.098836    0.028933   -0.104694
      6          6           0       -0.306909    0.403123   -0.189880
      7          8           0       -0.692249    1.531889   -0.063505
      8          8           0       -1.074172   -0.657544   -0.423871
      9          6           0       -2.493129   -0.407586   -0.509446
     10          6           0       -3.107746   -0.284383    0.870698
     11          1           0       -2.879588   -1.270805   -1.047963
     12          1           0       -2.653253    0.493978   -1.101776
     13          1           0       -4.189651   -0.171165    0.779123
     14          1           0       -2.902325   -1.179192    1.459949
     15          1           0       -2.713827    0.588104    1.392172
 ---------------------------------------------------------------------

 SCF Done:  E(UM062X) =  -420.174735772     A.U. after   24 cycles

 The electronic state is 2-A.
 Alpha  occ. eigenvalues --  -19.68924 -19.68378 -19.63888 -10.71348 -10.61073
 Alpha  occ. eigenvalues --  -10.60566 -10.57892 -10.54183  -1.26355  -1.18638
 Alpha  occ. eigenvalues --   -1.17079  -0.91230  -0.87723  -0.78553  -0.70998
 Alpha  occ. eigenvalues --   -0.67275  -0.64680  -0.59072  -0.57051  -0.55841
 Alpha  occ. eigenvalues --   -0.54153  -0.49894  -0.47237  -0.46107  -0.45882
 Alpha  occ. eigenvalues --   -0.42888  -0.42299  -0.40169  -0.39126  -0.38319
 Alpha  occ. eigenvalues --   -0.37123
 Alpha virt. eigenvalues --   -0.02258  -0.00396   0.00108   0.01640   0.02279
 Alpha virt. eigenvalues --    0.02687   0.03550   0.04899   0.05320   0.06156
 Alpha virt. eigenvalues --    0.06906   0.07748   0.08106   0.08655   0.10252

  Beta  occ. eigenvalues --  -19.68935 -19.67596 -19.63882 -10.71328 -10.61074
  Beta  occ. eigenvalues --  -10.59451 -10.57779 -10.54183  -1.26359  -1.17075
  Beta  occ. eigenvalues --   -1.15742  -0.90622  -0.86643  -0.77994  -0.70258
  Beta  occ. eigenvalues --   -0.64860  -0.63881  -0.59073  -0.57085  -0.54290
  Beta  occ. eigenvalues --   -0.50931  -0.49873  -0.47237  -0.45845  -0.43116
  Beta  occ. eigenvalues --   -0.42474  -0.39684  -0.39133  -0.36868  -0.36247
  Beta virt. eigenvalues --   -0.16268  -0.01265  -0.00205   0.00361   0.01660
  Beta virt. eigenvalues --    0.02288   0.02928   0.03729   0.05312   0.05760
  Beta virt. eigenvalues --    0.06630   0.06968   0.07769   0.08169   0.08680

 Mulliken charges and spin densities:
               1          2
     1  O   -0.323427   0.341643
     2  H    0.272537  -0.008561
     3  C   -0.613106   0.725827
     4  H    0.410811  -0.037871
     5  C    1.099177   0.066906
     6  C   -0.876586  -0.087088
     7  O   -0.207295   0.000902
     8  O    0.011855  -0.000139
     9  C   -0.281766  -0.001504
    10  C   -0.403187   0.000199
    11  H    0.198220  -0.000166
    12  H    0.193914   0.000088
    13  H    0.166494  -0.000031
    14  H    0.167753  -0.000013
    15  H    0.184606  -0.000192
 Sum of Mulliken charges =  -0.00000   1.00000

 Dipole moment (field-independent basis, Debye):
    X=             -1.3688    Y=             -0.3852    Z=             -1.0536  Tot=              1.7698
 Quadrupole moment (field-independent basis, Debye-Ang):
   XX=            -38.8141   YY=            -51.9135   ZZ=            -48.0571
   XY=              7.6695   XZ=             -3.6921   YZ=             -0.2710

  Exact polarizability: 144.176  -8.859  62.044   1.964   0.541  50.931
 Approx polarizability: 122.696 -13.336  80.306   3.324   1.762  57.882

 ******    1 imaginary frequencies (negative Signs) ******

                      1                      2                      3
                      A                      A                      A
 Frequencies --   -698.8284                 7.9224                22.2488
 Red. masses --      1.0572                 6.7134                 6.3049
 Frc consts  --      0.3042                 0.0002                 0.0018
 IR Inten    --    139.7524                 2.3667                 2.4290

                      4                      5                      6
                      A                      A                      A
 Frequencies --     39.8348                88.2779               113.9741
 Red. masses --      1.2085                 3.2072                 4.2022
 Frc consts  --      0.0011                 0.0147                 0.0322
 IR Inten    --     57.6812                19.8487                 0.3464

                      7                      8                      9
                      A                      A                      A
 Frequencies --    136.2851               214.0312               236.5400
 Red. masses --      3.6843                 2.0620                 1.9897
 Frc consts  --      0.0403                 0.0557                 0.0656
 IR Inten    --      1.1975                34.2253                14.9922

                     10                     11                     12
                      A                      A                      A
 Frequencies --    266.2060               333.8772               421.3077
 Red. masses --      7.5732                 2.8626                 3.9345
 Frc consts  --      0.3162                 0.1880                 0.4115
 IR Inten    --     35.1620                 9.7459                 5.4250

                     13                     14                     15
                      A                      A                      A
 Frequencies --    488.9065               554.2921               596.6750
 Red. masses --      1.0792                 6.2068                 6.3672
 Frc consts  --      0.1520                 1.1236                 1.3356
 IR Inten    --    177.1859                13.5566                49.8282

                     16                     17                     18
                      A                      A                      A
 Frequencies --    772.5581               798.5362               894.1843
 Red. masses --     10.1700                 1.2117                 3.0819
 Frc consts  --      3.5763                 0.4552                 1.4519
 IR Inten    --     17.2773                 4.6437                 7.1392

                     19                     20                     21
                      A                      A                      A
 Frequencies --    931.0531              1076.2882              1127.5614
 Red. masses --      2.9126                 4.1849                 2.0857
 Frc consts  --      1.4876                 2.8563                 1.5624
 IR Inten    --      2.5787                23.9875                27.2102

                     22                     23                     24
                      A                      A                      A
 Frequencies --   1202.7547              1286.0351              1347.3689
 Red. masses --      1.7777                 4.1696                 1.2136
 Frc consts  --      1.5152                 4.0630                 1.2981
 IR Inten    --      6.0226               810.3311               109.9147

                     25                     26                     27
                      A                      A                      A
 Frequencies --   1399.3929              1401.8070              1430.9468
 Red. masses --      1.1339                 1.2513                 1.3794
 Frc consts  --      1.3083                 1.4487                 1.6641
 IR Inten    --     37.8892                29.8659                 9.5019

                     28                     29                     30
                      A                      A                      A
 Frequencies --   1492.7075              1501.6018              1514.0403
 Red. masses --      1.0412                 1.0672                 1.0786
 Frc consts  --      1.3669                 1.4178                 1.4567
 IR Inten    --     11.5407                 4.4296                19.5371

                     31                     32                     33
                      A                      A                      A
 Frequencies --   1838.7547              2218.8964              2480.7520
 Red. masses --     12.1396                 5.8996                 1.1944
 Frc consts  --     24.1825                17.1137                 4.3306
 IR Inten    --    335.9915               262.5962               552.5239

                     34                     35                     36
                      A                      A                      A
 Frequencies --   3076.1277              3108.5315              3151.7366
 Red. masses --      1.0354                 1.0608                 1.1014
 Frc consts  --      5.7723                 6.0396                 6.4462
 IR Inten    --     10.2255                18.2233                15.2737

                     37                     38                     39
                      A                      A                      A
 Frequencies --   3155.5009              3176.3211              3862.9944
 Red. masses --      1.1049                 1.1074                 1.0669
 Frc consts  --      6.4817                 6.5827                 9.3808
 IR Inten    --      1.9301                14.6570               154.3208

 - Thermochemistry -
 -------------------
 Temperature   298.150 Kelvin.  Pressure   1.00000 Atm.
 Atom     1 has atomic number  8 and mass  15.99491

 Molecular mass:   115.03952 amu.
 Principal axes and moments of inertia in atomic units:
                           1         2         3
     Eigenvalues --   287.248122621.670802734.31477
           X            0.99993   0.00817  -0.00865
           Y           -0.00825   0.99993  -0.00894
           Z            0.00857   0.00901   0.99992
 This molecule is an asymmetric top.
 Rotational symmetry number  1.
 Rotational temperatures (Kelvin)      0.30153     0.03304     0.03168
 Rotational constants (GHZ):           6.28287     0.68839     0.66003
    1 imaginary frequencies ignored.
 Zero-point vibrational energy     285709.1 (Joules/Mol)
                                   68.28611 (Kcal/Mol)
 Warning -- explicit consideration of  14 degrees of freedom as
           vibrations may cause significant error
 Vibrational temperatures:     11.40    32.01    57.31   127.01   163.98
          (Kelvin)            196.08   307.94   340.33   383.01   480.37
                              606.17   703.43   797.50   858.48  1111.54
                             1148.92  1286.53  1339.58  1548.54  1622.31
                             1730.50  1850.32  1938.56  2013.41  2016.89
                             2058.81  2147.67  2160.47  2178.37  2645.56
                             3192.50  3569.25  4425.86  4472.48  4534.65
                             4540.06  4570.02  5557.99

 Zero-point correction=                           0.108821 (Hartree/Particle)
 Thermal correction to Energy=                    0.119616
 Thermal correction to Enthalpy=                  0.120560
 Thermal correction to Gibbs Free Energy=         0.067907
 Sum of electronic and zero-point Energies=           -420.065915
 Sum of electronic and thermal Energies=              -420.055120
 Sum of electronic and thermal Enthalpies=            -420.054176
 Sum of electronic and thermal Free Energies=         -420.106829

                     E (Thermal)             CV                S
                      KCal/Mol        Cal/Mol-Kelvin    Cal/Mol-Kelvin
 Total                   75.060             33.461            110.818
 Electronic               0.000              0.000              1.377
 Translational            0.889              2.981             40.136
 Rotational               0.889              2.981             29.111
 Vibrational             73.283             27.499             40.194
 Vibration     1          0.593              1.987              8.474
 Vibration     2          0.593              1.985              6.423
 Vibration     3          0.594              1.981              5.267
 Vibration     4          0.601              1.957              3.698
 Vibration     5          0.607              1.938              3.200
 Vibration     6          0.614              1.917              2.855
 Vibration     7          0.644              1.820              2.009
 Vibration     8          0.655              1.785              1.829
 Vibration     9          0.672              1.735              1.621
 Vibration    10          0.715              1.608              1.241
 Vibration    11          0.784              1.424              0.888
 Vibration    12          0.845              1.275              0.686
 Vibration    13          0.910              1.130              0.535
 Vibration    14          0.955              1.039              0.455

 1\1\GINC-AJ\Freq\UM062X\6-311++G(d,p)\C5H7O3(2)\AAYUSH\23-Jun-2025\0\\
 # freq 6-311++g(d,p) m062x\\Title Card Required\\0,2\O,4.558833,-0.251
 726,0.324257\H,4.595354,0.641287,-0.043336\C,2.256384,-0.309055,-0.074
 801\H,3.719379,-0.669351,-0.084483\C,1.098836,0.028933,-0.104694\C,-0.
 306909,0.403123,-0.18988\O,-0.692249,1.531889,-0.063505\O,-1.074172,-0
 .657544,-0.423871\C,-2.493129,-0.407586,-0.509446\C,-3.107746,-0.28438
 3,0.870698\H,-2.879588,-1.270805,-1.047963\H,-2.653253,0.493978,-1.101
 776\H,-4.189651,-0.171165,0.779123\H,-2.902325,-1.179192,1.459949\H,-2

 Normal termination of Gaussian 16 at Mon Jun 23 00:27:12 2025.
