 Gaussian 16, Revision A.03,
 Gaussian 16:  ES64L-G16RevA.03 25-Dec-2016

 --------------------------
 # freq 6-311++g(d,p) m062x
 --------------------------

 -------------------
 Title Card Required
 -------------------
 Symbolic Z-matrix:
 Charge =  0 Multiplicity = 2

                         Standard orientation:
 ---------------------------------------------------------------------
 Center     Atomic      Atomic             Coordinates (Angstroms)
 Number     Number       Type             X           Y           Z
 ---------------------------------------------------------------------
      1          8           0        4.561890   -0.244269    0.332596
      2          1           0        4.585262    0.634240   -0.064305
      3          6           0        2.249241   -0.304959   -0.069928
      4          1           0        3.867618   -0.735534   -0.157580
      5          6           0        1.092748    0.032596   -0.102599
      6          6           0       -0.310531    0.403457   -0.191025
      7          8           0       -0.695870    1.532349   -0.067081
      8          8           0       -1.075530   -0.659159   -0.422070
      9          6           0       -2.494245   -0.410796   -0.508777
     10          6           0       -3.109137   -0.284276    0.870898
     11          1           0       -2.880040   -1.275721   -1.045039
     12          1           0       -2.654997    0.489074   -1.103548
     13          1           0       -4.191124   -0.172259    0.778829
     14          1           0       -2.903032   -1.177286    1.462643
     15          1           0       -2.716051    0.589975    1.390034
 ---------------------------------------------------------------------

 SCF Done:  E(UM062X) =  -420.176889726     A.U. after   24 cycles

 The electronic state is 2-A.
 Alpha  occ. eigenvalues --  -19.68886 -19.67496 -19.63809 -10.71257 -10.61040
 Alpha  occ. eigenvalues --  -10.60890 -10.57760 -10.54155  -1.26322  -1.18533
 Alpha  occ. eigenvalues --   -1.17039  -0.91252  -0.87722  -0.78518  -0.70798
 Alpha  occ. eigenvalues --   -0.66650  -0.64678  -0.59033  -0.57006  -0.55029
 Alpha  occ. eigenvalues --   -0.53913  -0.49872  -0.47206  -0.46828  -0.45844
 Alpha  occ. eigenvalues --   -0.42612  -0.41930  -0.40162  -0.39086  -0.38389
 Alpha  occ. eigenvalues --   -0.37086
 Alpha virt. eigenvalues --   -0.02261  -0.00392   0.00146   0.01645   0.02287
 Alpha virt. eigenvalues --    0.02686   0.03420   0.04921   0.05335   0.06139
 Alpha virt. eigenvalues --    0.06950   0.07761   0.08040   0.08658   0.10266

  Beta  occ. eigenvalues --  -19.68898 -19.66880 -19.63810 -10.71233 -10.61041
  Beta  occ. eigenvalues --  -10.59615 -10.57641 -10.54156  -1.26333  -1.17051
  Beta  occ. eigenvalues --   -1.16359  -0.90594  -0.86530  -0.77906  -0.70130
  Beta  occ. eigenvalues --   -0.64860  -0.64325  -0.59046  -0.57063  -0.54233
  Beta  occ. eigenvalues --   -0.50643  -0.49850  -0.47224  -0.45829  -0.42973
  Beta  occ. eigenvalues --   -0.42440  -0.39648  -0.39106  -0.36756  -0.36149
  Beta virt. eigenvalues --   -0.14930  -0.01023  -0.00164   0.00391   0.01672
  Beta virt. eigenvalues --    0.02294   0.02994   0.03540   0.05325   0.05858
  Beta virt. eigenvalues --    0.06833   0.06996   0.07772   0.08126   0.08666

 Mulliken charges and spin densities:
               1          2
     1  O   -0.326351   0.236740
     2  H    0.277184  -0.006893
     3  C   -0.585842   0.836430
     4  H    0.366557  -0.031978
     5  C    1.094259   0.074235
     6  C   -0.854370  -0.104248
     7  O   -0.208196  -0.001963
     8  O    0.011633  -0.000567
     9  C   -0.282325  -0.001536
    10  C   -0.403044   0.000180
    11  H    0.197903  -0.000187
    12  H    0.193713   0.000047
    13  H    0.166526  -0.000034
    14  H    0.167616  -0.000018
    15  H    0.184737  -0.000209
 Sum of Mulliken charges =  -0.00000   1.00000

 Dipole moment (field-independent basis, Debye):
    X=             -1.3618    Y=             -0.5727    Z=             -1.2590  Tot=              1.9410
 Quadrupole moment (field-independent basis, Debye-Ang):
   XX=            -39.3475   YY=            -51.6834   ZZ=            -47.9924
   XY=              6.8747   XZ=             -4.6552   YZ=             -0.1061

  Exact polarizability: 135.023  -7.727  62.693   1.120   0.732  51.325
 Approx polarizability: 117.671 -12.752  80.475   2.694   1.990  58.164

 ******    4 imaginary frequencies (negative Signs) ******

                      1                      2                      3
                      A                      A                      A
 Frequencies --   -435.0165              -218.4262               -65.3999
 Red. masses --      1.0425                 1.0732                 8.5425
 Frc consts  --      0.1162                 0.0302                 0.0215
 IR Inten    --    217.9576                76.9986                 0.6538

                      4                      5                      6
                      A                      A                      A
 Frequencies --    -55.7436                69.1511               105.8736
 Red. masses --      6.7317                 4.0800                 5.7720
 Frc consts  --      0.0123                 0.0115                 0.0381
 IR Inten    --      5.6626                 1.7794                 4.2211

                      7                      8                      9
                      A                      A                      A
 Frequencies --    121.7634               183.5307               229.0500
 Red. masses --      3.2444                 4.5257                 1.3308
 Frc consts  --      0.0283                 0.0898                 0.0411
 IR Inten    --      6.5214                55.4912                 2.4199

                     10                     11                     12
                      A                      A                      A
 Frequencies --    240.2703               332.8939               413.5045
 Red. masses --      7.8333                 2.8341                 1.5590
 Frc consts  --      0.2664                 0.1850                 0.1571
 IR Inten    --      5.7516                11.5334                82.5354

                     13                     14                     15
                      A                      A                      A
 Frequencies --    423.2453               549.6662               601.2640
 Red. masses --      1.8161                 5.8134                 7.3282
 Frc consts  --      0.1917                 1.0349                 1.5609
 IR Inten    --     60.5072                10.2656                40.0687

                     16                     17                     18
                      A                      A                      A
 Frequencies --    770.7509               799.1116               894.7782
 Red. masses --     10.2222                 1.2092                 3.0518
 Frc consts  --      3.5779                 0.4549                 1.4396
 IR Inten    --     16.6924                 5.0974                 8.2640

                     19                     20                     21
                      A                      A                      A
 Frequencies --    933.0344              1077.2755              1127.8806
 Red. masses --      2.9642                 4.1968                 2.0895
 Frc consts  --      1.5204                 2.8696                 1.5661
 IR Inten    --      4.5102                22.2500                26.1896

                     22                     23                     24
                      A                      A                      A
 Frequencies --   1203.0796              1288.3248              1347.9717
 Red. masses --      1.7793                 4.0599                 1.2225
 Frc consts  --      1.5174                 3.9702                 1.3088
 IR Inten    --      5.8951               746.5466               110.1534

                     25                     26                     27
                      A                      A                      A
 Frequencies --   1401.5308              1431.1587              1492.0300
 Red. masses --      1.2754                 1.3807                 1.0788
 Frc consts  --      1.4761                 1.6662                 1.4150
 IR Inten    --     35.4529                10.6104                68.4574

                     28                     29                     30
                      A                      A                      A
 Frequencies --   1492.8923              1501.6670              1514.1476
 Red. masses --      1.0515                 1.0673                 1.0790
 Frc consts  --      1.3808                 1.4180                 1.4575
 IR Inten    --     19.9000                 3.4198                18.3253

                     31                     32                     33
                      A                      A                      A
 Frequencies --   1840.5430              2229.8398              3076.0937
 Red. masses --     12.1544                11.6713                 1.0354
 Frc consts  --     24.2592                34.1915                 5.7722
 IR Inten    --    335.4898               109.5496                10.2748

                     34                     35                     36
                      A                      A                      A
 Frequencies --   3108.3355              3151.6438              3155.4444
 Red. masses --      1.0608                 1.1015                 1.1048
 Frc consts  --      6.0388                 6.4460                 6.4814
 IR Inten    --     18.2587                15.2319                 2.0053

                     37                     38                     39
                      A                      A                      A
 Frequencies --   3176.1796              3345.1234              3892.2787
 Red. masses --      1.1074                 1.0673                 1.0690
 Frc consts  --      6.5818                 7.0368                 9.5422
 IR Inten    --     14.6823               177.6855               129.7102

 - Thermochemistry -
 -------------------
 Temperature   298.150 Kelvin.  Pressure   1.00000 Atm.
 Atom     1 has atomic number  8 and mass  15.99491

 Molecular mass:   115.03952 amu.
 Principal axes and moments of inertia in atomic units:
                           1         2         3
     Eigenvalues --   287.859052626.653272739.38109
           X            0.99993   0.00761  -0.00918
           Y           -0.00767   0.99994  -0.00726
           Z            0.00912   0.00733   0.99993
 This molecule is an asymmetric top.
 Rotational symmetry number  1.
 Rotational temperatures (Kelvin)      0.30089     0.03298     0.03162
 Rotational constants (GHZ):           6.26953     0.68709     0.65881
    4 imaginary frequencies ignored.
 Zero-point vibrational energy     290222.0 (Joules/Mol)
                                   69.36472 (Kcal/Mol)
 Warning -- explicit consideration of  11 degrees of freedom as
           vibrations may cause significant error
 Vibrational temperatures:     99.49   152.33   175.19   264.06   329.55
          (Kelvin)            345.70   478.96   594.94   608.96   790.85
                              865.08  1108.94  1149.74  1287.39  1342.43
                             1549.96  1622.77  1730.96  1853.61  1939.43
                             2016.49  2059.12  2146.70  2147.94  2160.56
                             2178.52  2648.13  3208.24  4425.81  4472.20
                             4534.51  4539.98  4569.81  4812.89  5600.12

 Zero-point correction=                           0.110540 (Hartree/Particle)
 Thermal correction to Energy=                    0.118893
 Thermal correction to Enthalpy=                  0.119837
 Thermal correction to Gibbs Free Energy=         0.076011
 Sum of electronic and zero-point Energies=           -420.066350
 Sum of electronic and thermal Energies=              -420.057997
 Sum of electronic and thermal Enthalpies=            -420.057052
 Sum of electronic and thermal Free Energies=         -420.100879

                     E (Thermal)             CV                S
                      KCal/Mol        Cal/Mol-Kelvin    Cal/Mol-Kelvin
 Total                   74.607             27.767             92.241
 Electronic               0.000              0.000              1.377
 Translational            0.889              2.981             40.136
 Rotational               0.889              2.981             29.117
 Vibrational             72.829             21.805             21.611
 Vibration     1          0.598              1.969              4.177
 Vibration     2          0.605              1.945              3.343
 Vibration     3          0.609              1.931              3.072
 Vibration     4          0.631              1.862              2.292
 Vibration     5          0.652              1.797              1.886
 Vibration     6          0.657              1.779              1.801
 Vibration     7          0.715              1.610              1.246
 Vibration     8          0.777              1.441              0.914
 Vibration     9          0.785              1.420              0.881
 Vibration    10          0.905              1.140              0.545
 Vibration    11          0.959              1.029              0.447

 1\1\GINC-AJ\Freq\UM062X\6-311++G(d,p)\C5H7O3(2)\AAYUSH\16-Aug-2025\0\\
 # freq 6-311++g(d,p) m062x\\Title Card Required\\0,2\O,4.502441,-0.265
 422,0.339923\H,4.526714,0.6144,-0.054005\C,2.18948,-0.321764,-0.06144\
 H,3.807249,-0.754124,-0.151509\C,1.033405,0.01739,-0.092282\C,-0.36944
 6,0.390357,-0.17862\O,-0.753255,1.519317,-0.050615\O,-1.135951,-0.6704
 81,-0.412822\C,-2.554394,-0.419997,-0.497848\C,-3.168315,-0.297373,0.8
 82612\H,-2.941619,-1.282597,-1.036817\H,-2.714333,0.482095,-1.089463\H
 ,-4.25021,-0.18365,0.791562\H,-2.963016,-1.192654,1.471198\H,-2.773797

 Normal termination of Gaussian 16 at Sat Aug 16 13:58:44 2025.
