 Gaussian 16, Revision A.03,
 Gaussian 16:  ES64L-G16RevA.03 25-Dec-2016

 -------------------
 # freq 6-31+g m062x
 -------------------

 -------------------
 Title Card Required
 -------------------
 Symbolic Z-matrix:
 Charge =  0 Multiplicity = 2

                         Standard orientation:
 ---------------------------------------------------------------------
 Center     Atomic      Atomic             Coordinates (Angstroms)
 Number     Number       Type             X           Y           Z
 ---------------------------------------------------------------------
      1          8           0        4.557898   -0.255753    0.320440
      2          1           0        4.603325    0.645509   -0.033106
      3          6           0        2.262141   -0.311588   -0.076837
      4          1           0        3.601413   -0.630590   -0.049849
      5          6           0        1.103483    0.025854   -0.105961
      6          6           0       -0.304121    0.403098   -0.189206
      7          8           0       -0.690261    1.531757   -0.062338
      8          8           0       -1.073336   -0.656846   -0.424582
      9          6           0       -2.492220   -0.405964   -0.509687
     10          6           0       -3.106796   -0.283838    0.870632
     11          1           0       -2.879286   -1.268460   -1.048992
     12          1           0       -2.652093    0.496269   -1.101065
     13          1           0       -4.188669   -0.169924    0.779337
     14          1           0       -2.901762   -1.179341    1.458978
     15          1           0       -2.712257    0.587901    1.392892
 ---------------------------------------------------------------------

 SCF Done:  E(UM062X) =  -419.920206563     A.U. after   24 cycles

 The electronic state is 2-A.
 Alpha  occ. eigenvalues --  -19.72628 -19.71113 -19.66794 -10.73482 -10.61950
 Alpha  occ. eigenvalues --  -10.61270 -10.59227 -10.54912  -1.28499  -1.20702
 Alpha  occ. eigenvalues --   -1.19125  -0.91634  -0.88209  -0.78930  -0.71724
 Alpha  occ. eigenvalues --   -0.68424  -0.64792  -0.58878  -0.57240  -0.56750
 Alpha  occ. eigenvalues --   -0.54498  -0.49946  -0.47341  -0.46766  -0.45789
 Alpha  occ. eigenvalues --   -0.43359  -0.42278  -0.39898  -0.38765  -0.38143
 Alpha  occ. eigenvalues --   -0.37105
 Alpha virt. eigenvalues --   -0.02173   0.01333   0.02112   0.03377   0.03960
 Alpha virt. eigenvalues --    0.04668   0.04917   0.06496   0.07385   0.08348
 Alpha virt. eigenvalues --    0.08816   0.09030   0.09248   0.10632   0.12394

  Beta  occ. eigenvalues --  -19.71515 -19.71120 -19.66793 -10.73465 -10.61950
  Beta  occ. eigenvalues --  -10.60388 -10.59148 -10.54912  -1.28500  -1.19129
  Beta  occ. eigenvalues --   -1.16877  -0.91157  -0.87379  -0.78537  -0.70942
  Beta  occ. eigenvalues --   -0.65114  -0.64280  -0.58889  -0.57246  -0.54589
  Beta  occ. eigenvalues --   -0.51051  -0.49931  -0.47312  -0.45734  -0.43630
  Beta  occ. eigenvalues --   -0.42396  -0.39495  -0.38769  -0.37036  -0.36466
  Beta virt. eigenvalues --   -0.17106  -0.01490   0.01720   0.02206   0.03404
  Beta virt. eigenvalues --    0.04540   0.04736   0.04973   0.06603   0.07604
  Beta virt. eigenvalues --    0.08391   0.08871   0.09056   0.09427   0.10854

 Mulliken charges and spin densities:
               1          2
     1  O   -0.512150   0.533886
     2  H    0.425254  -0.018551
     3  C    1.392551   0.152861
     4  H    0.502582  -0.045485
     5  C   -0.505673   0.317186
     6  C   -1.055151   0.061613
     7  O   -0.350264  -0.000753
     8  O   -0.206772  -0.000673
     9  C   -0.252751   0.000443
    10  C   -0.560416  -0.000381
    11  H    0.222040  -0.000032
    12  H    0.233255  -0.000049
    13  H    0.209396  -0.000073
    14  H    0.221620  -0.000003
    15  H    0.236478   0.000013
 Sum of Mulliken charges =  -0.00000   1.00000

 Dipole moment (field-independent basis, Debye):
    X=             -1.0216    Y=             -0.0532    Z=             -1.1039  Tot=              1.5050
 Quadrupole moment (field-independent basis, Debye-Ang):
   XX=            -36.9244   YY=            -53.4025   ZZ=            -48.4829
   XY=              9.0546   XZ=             -3.9539   YZ=             -0.3890

  Exact polarizability: 132.686  -7.036  59.080   3.301   0.466  46.268
 Approx polarizability: 116.959 -13.561  74.977   4.286   1.953  47.841

 ******    5 imaginary frequencies (negative Signs) ******

                      1                      2                      3
                      A                      A                      A
 Frequencies --  -1193.0120              -475.6835              -147.5172
 Red. masses --      1.0266                 1.0480                 3.4910
 Frc consts  --      0.8609                 0.1397                 0.0448
 IR Inten    --    394.6911               115.8645                30.7401

                      4                      5                      6
                      A                      A                      A
 Frequencies --    -72.5668               -22.5627                65.1817
 Red. masses --      6.9853                 2.9793                 4.3709
 Frc consts  --      0.0217                 0.0009                 0.0109
 IR Inten    --      4.4073                 0.4521                14.3805

                      7                      8                      9
                      A                      A                      A
 Frequencies --    108.2645               184.5672               257.5141
 Red. masses --      4.0095                 1.2784                 3.9226
 Frc consts  --      0.0277                 0.0257                 0.1533
 IR Inten    --      4.3898                 2.6008                27.4078

                     10                     11                     12
                      A                      A                      A
 Frequencies --    315.1350               361.9463               423.4581
 Red. masses --      3.0295                 5.6254                 3.7479
 Frc consts  --      0.1773                 0.4342                 0.3960
 IR Inten    --      6.9346                10.5071                 6.3152

                     13                     14                     15
                      A                      A                      A
 Frequencies --    530.9684               593.4897               634.4923
 Red. masses --      1.7474                 4.0746                 7.1496
 Frc consts  --      0.2902                 0.8456                 1.6958
 IR Inten    --    148.4079                34.6367                52.0356

                     16                     17                     18
                      A                      A                      A
 Frequencies --    802.7293               816.7071               897.4194
 Red. masses --      4.1575                 1.5591                 3.2796
 Frc consts  --      1.5784                 0.6127                 1.5562
 IR Inten    --     15.7190                 5.2698                11.0491

                     19                     20                     21
                      A                      A                      A
 Frequencies --    942.4235              1097.4193              1123.3041
 Red. masses --      2.4564                 1.8455                 2.1362
 Frc consts  --      1.2854                 1.3095                 1.5881
 IR Inten    --      4.6548                63.4263                15.2820

                     22                     23                     24
                      A                      A                      A
 Frequencies --   1158.1456              1227.3144              1325.4513
 Red. masses --      2.0880                 1.7639                 2.1847
 Frc consts  --      1.6501                 1.5655                 2.2613
 IR Inten    --     28.7159                 5.4468               485.7540

                     25                     26                     27
                      A                      A                      A
 Frequencies --   1370.1010              1442.6423              1456.0426
 Red. masses --      1.6302                 1.3639                 1.2640
 Frc consts  --      1.8030                 1.6724                 1.5788
 IR Inten    --    326.4307                45.4900                16.0799

                     28                     29                     30
                      A                      A                      A
 Frequencies --   1528.0983              1535.8681              1544.8039
 Red. masses --      1.0422                 1.0764                 1.0668
 Frc consts  --      1.4338                 1.4960                 1.5000
 IR Inten    --     14.9754                 7.8533                22.3858

                     31                     32                     33
                      A                      A                      A
 Frequencies --   1768.8965              1905.6106              2351.8918
 Red. masses --      1.0783                12.3818                 9.9066
 Frc consts  --      1.9879                26.4912                32.2856
 IR Inten    --    577.1846               324.4674                41.0301

                     34                     35                     36
                      A                      A                      A
 Frequencies --   3108.1133              3138.2059              3188.1735
 Red. masses --      1.0351                 1.0602                 1.1008
 Frc consts  --      5.8914                 6.1516                 6.5922
 IR Inten    --     13.4030                20.2970                12.8083

                     37                     38                     39
                      A                      A                      A
 Frequencies --   3191.1604              3212.1213              3844.0938
 Red. masses --      1.1022                 1.1053                 1.0652
 Frc consts  --      6.6129                 6.7191                 9.2741
 IR Inten    --      7.7624                17.4711                98.0222

 - Thermochemistry -
 -------------------
 Temperature   298.150 Kelvin.  Pressure   1.00000 Atm.
 Atom     1 has atomic number  8 and mass  15.99491

 Molecular mass:   115.03952 amu.
 Principal axes and moments of inertia in atomic units:
                           1         2         3
     Eigenvalues --   286.986012618.861692731.46123
           X            0.99993   0.00852  -0.00840
           Y           -0.00860   0.99992  -0.00959
           Z            0.00832   0.00966   0.99992
 This molecule is an asymmetric top.
 Rotational symmetry number  1.
 Rotational temperatures (Kelvin)      0.30181     0.03307     0.03171
 Rotational constants (GHZ):           6.28860     0.68913     0.66072
    5 imaginary frequencies ignored.
 Zero-point vibrational energy     283824.5 (Joules/Mol)
                                   67.83569 (Kcal/Mol)
 Warning -- explicit consideration of   9 degrees of freedom as
           vibrations may cause significant error
 Vibrational temperatures:     93.78   155.77   265.55   370.51   453.41
          (Kelvin)            520.76   609.26   763.95   853.90   912.89
                             1154.95  1175.06  1291.19  1355.94  1578.94
                             1616.18  1666.31  1765.83  1907.03  1971.27
                             2075.64  2094.92  2198.59  2209.77  2222.63
                             2545.05  2741.75  3383.85  4471.88  4515.18
                             4587.07  4591.37  4621.53  5530.79

 Zero-point correction=                           0.108103 (Hartree/Particle)
 Thermal correction to Energy=                    0.115445
 Thermal correction to Enthalpy=                  0.116389
 Thermal correction to Gibbs Free Energy=         0.074616
 Sum of electronic and zero-point Energies=           -419.812104
 Sum of electronic and thermal Energies=              -419.804762
 Sum of electronic and thermal Enthalpies=            -419.803818
 Sum of electronic and thermal Free Energies=         -419.845591

                     E (Thermal)             CV                S
                      KCal/Mol        Cal/Mol-Kelvin    Cal/Mol-Kelvin
 Total                   72.443             25.149             87.919
 Electronic               0.000              0.000              1.377
 Translational            0.889              2.981             40.136
 Rotational               0.889              2.981             29.108
 Vibrational             70.665             19.187             17.298
 Vibration     1          0.597              1.971              4.294
 Vibration     2          0.606              1.943              3.300
 Vibration     3          0.631              1.861              2.282
 Vibration     4          0.667              1.750              1.679
 Vibration     5          0.702              1.645              1.335
 Vibration     6          0.736              1.551              1.114
 Vibration     7          0.786              1.419              0.880
 Vibration     8          0.886              1.181              0.585
 Vibration     9          0.951              1.046              0.461

 Normal termination of Gaussian 16 at Fri Jun 20 12:17:29 2025.
