 Gaussian 16, Revision A.03,
 Gaussian 16:  ES64L-G16RevA.03 25-Dec-2016

 --------------------------
 # freq 6-311++g(d,p) m062x
 --------------------------

 -------------------
 Title Card Required
 -------------------
 Symbolic Z-matrix:
 Charge =  0 Multiplicity = 2

                         Standard orientation:
 ---------------------------------------------------------------------
 Center     Atomic      Atomic             Coordinates (Angstroms)
 Number     Number       Type             X           Y           Z
 ---------------------------------------------------------------------
      1          8           0        4.561641   -0.256787    0.320367
      2          1           0        4.609235    0.648951   -0.028980
      3          6           0        2.266087   -0.313446   -0.077448
      4          1           0        3.469856   -0.621922   -0.049856
      5          6           0        1.106953    0.023709   -0.106502
      6          6           0       -0.301718    0.403137   -0.188995
      7          8           0       -0.688696    1.531849   -0.063022
      8          8           0       -1.072457   -0.656738   -0.424249
      9          6           0       -2.491160   -0.405318   -0.509381
     10          6           0       -3.105804   -0.282411    0.870898
     11          1           0       -2.878722   -1.267892   -1.048296
     12          1           0       -2.650902    0.496754   -1.101059
     13          1           0       -4.187666   -0.168140    0.779645
     14          1           0       -2.901034   -1.177747    1.459616
     15          1           0       -2.710827    0.589380    1.392730
 ---------------------------------------------------------------------

 SCF Done:  E(UM062X) =  -420.178327745     A.U. after   22 cycles

 The electronic state is 2-A.
 Alpha  occ. eigenvalues --  -19.71132 -19.68532 -19.63409 -10.70903 -10.60801
 Alpha  occ. eigenvalues --  -10.58360 -10.57115 -10.53961  -1.25892  -1.18959
 Alpha  occ. eigenvalues --   -1.16607  -0.90517  -0.87062  -0.78163  -0.71050
 Alpha  occ. eigenvalues --   -0.67260  -0.64221  -0.58663  -0.58224  -0.56608
 Alpha  occ. eigenvalues --   -0.53926  -0.49565  -0.47330  -0.46885  -0.45629
 Alpha  occ. eigenvalues --   -0.43934  -0.42213  -0.39595  -0.38750  -0.37334
 Alpha  occ. eigenvalues --   -0.36335
 Alpha virt. eigenvalues --   -0.01709  -0.00652   0.00088   0.01783   0.02339
 Alpha virt. eigenvalues --    0.02727   0.03825   0.05218   0.05431   0.06424
 Alpha virt. eigenvalues --    0.07015   0.07905   0.08275   0.08831   0.10223

  Beta  occ. eigenvalues --  -19.69836 -19.68538 -19.63404 -10.70893 -10.60801
  Beta  occ. eigenvalues --  -10.57734 -10.57033 -10.53962  -1.25893  -1.16601
  Beta  occ. eigenvalues --   -1.13686  -0.90219  -0.86408  -0.77804  -0.70164
  Beta  occ. eigenvalues --   -0.64554  -0.62580  -0.58658  -0.56646  -0.54214
  Beta  occ. eigenvalues --   -0.52665  -0.49541  -0.46904  -0.45555  -0.43696
  Beta  occ. eigenvalues --   -0.42231  -0.39333  -0.38744  -0.36551  -0.35934
  Beta virt. eigenvalues --   -0.15820  -0.01243  -0.00275   0.00218   0.01793
  Beta virt. eigenvalues --    0.02379   0.02854   0.03958   0.05431   0.05675
  Beta virt. eigenvalues --    0.06632   0.07106   0.07922   0.08400   0.08891

 Mulliken charges and spin densities:
               1          2
     1  O   -0.245012   0.688151
     2  H    0.268530  -0.016960
     3  C   -0.662244   0.366578
     4  H    0.415244  -0.031669
     5  C    1.129104   0.037484
     6  C   -0.926366  -0.043652
     7  O   -0.211865   0.000925
     8  O    0.009665   0.000158
     9  C   -0.281076  -0.001125
    10  C   -0.403003   0.000262
    11  H    0.196892  -0.000097
    12  H    0.193410   0.000098
    13  H    0.165185  -0.000008
    14  H    0.167113  -0.000008
    15  H    0.184423  -0.000138
 Sum of Mulliken charges =  -0.00000   1.00000

 Dipole moment (field-independent basis, Debye):
    X=             -0.5826    Y=             -0.2959    Z=             -0.8156  Tot=              1.0451
 Quadrupole moment (field-independent basis, Debye-Ang):
   XX=            -33.8947   YY=            -52.2220   ZZ=            -48.0947
   XY=              8.0490   XZ=             -2.5748   YZ=             -0.4091

  Exact polarizability: 133.282  -6.244  60.543   2.709   0.485  50.363
 Approx polarizability: 119.116 -12.055  79.086   3.648   1.363  57.478

 ******    3 imaginary frequencies (negative Signs) ******

                      1                      2                      3
                      A                      A                      A
 Frequencies --  -1511.4504              -133.4984               -62.3329
 Red. masses --      1.0610                 2.6401                 6.5959
 Frc consts  --      1.4281                 0.0277                 0.0151
 IR Inten    --    552.9763                16.8908                 3.4846

                      4                      5                      6
                      A                      A                      A
 Frequencies --     77.3141               115.0753               155.2390
 Red. masses --      3.5709                 3.4820                 3.0899
 Frc consts  --      0.0126                 0.0272                 0.0439
 IR Inten    --      1.5158                 0.8369                19.8823

                      7                      8                      9
                      A                      A                      A
 Frequencies --    181.8673               226.0714               280.1947
 Red. masses --      1.6131                 1.2783                 3.9204
 Frc consts  --      0.0314                 0.0385                 0.1813
 IR Inten    --     80.8073                 2.1859                16.7264

                     10                     11                     12
                      A                      A                      A
 Frequencies --    337.3204               404.6999               433.9433
 Red. masses --      2.9443                 7.1170                 3.7219
 Frc consts  --      0.1974                 0.6868                 0.4129
 IR Inten    --      8.8381                 3.4967                 1.2430

                     13                     14                     15
                      A                      A                      A
 Frequencies --    571.4616               627.9301               697.1593
 Red. masses --      5.2077                 4.6592                 1.2556
 Frc consts  --      1.0020                 1.0824                 0.3596
 IR Inten    --     12.7518                 5.7937               167.1377

                     16                     17                     18
                      A                      A                      A
 Frequencies --    781.2947               797.8177               891.1897
 Red. masses --      8.5024                 1.2451                 2.9866
 Frc consts  --      3.0579                 0.4670                 1.3975
 IR Inten    --     24.1056                 2.9732                22.3806

                     19                     20                     21
                      A                      A                      A
 Frequencies --    911.0420               988.2433              1078.9469
 Red. masses --      1.9869                 1.5989                 3.9947
 Frc consts  --      0.9716                 0.9200                 2.7399
 IR Inten    --     24.2934                65.4868                33.9750

                     22                     23                     24
                      A                      A                      A
 Frequencies --   1127.5200              1202.3948              1284.2427
 Red. masses --      2.0874                 1.7732                 3.9067
 Frc consts  --      1.5635                 1.5105                 3.7962
 IR Inten    --     29.5271                 3.9920               689.7843

                     25                     26                     27
                      A                      A                      A
 Frequencies --   1346.6315              1399.1753              1410.2217
 Red. masses --      1.2058                 1.2241                 1.1729
 Frc consts  --      1.2883                 1.4119                 1.3743
 IR Inten    --     92.7927                 6.6297               195.2574

                     28                     29                     30
                      A                      A                      A
 Frequencies --   1431.5720              1492.5643              1501.4947
 Red. masses --      1.3848                 1.0413                 1.0685
 Frc consts  --      1.6721                 1.3668                 1.4193
 IR Inten    --     24.1303                10.9362                 5.3558

                     31                     32                     33
                      A                      A                      A
 Frequencies --   1513.9131              1837.5524              2310.7278
 Red. masses --      1.0777                12.0686                10.4665
 Frc consts  --      1.4553                24.0097                32.9267
 IR Inten    --     20.9081               361.0154                50.3917

                     34                     35                     36
                      A                      A                      A
 Frequencies --   3075.8285              3108.1156              3151.1860
 Red. masses --      1.0354                 1.0607                 1.1014
 Frc consts  --      5.7712                 6.0373                 6.4441
 IR Inten    --     10.6145                18.8080                15.5295

                     37                     38                     39
                      A                      A                      A
 Frequencies --   3155.1146              3175.7567              3797.1339
 Red. masses --      1.1049                 1.1074                 1.0667
 Frc consts  --      6.4802                 6.5802                 9.0617
 IR Inten    --      2.1593                15.0255               110.5404

 - Thermochemistry -
 -------------------
 Temperature   298.150 Kelvin.  Pressure   1.00000 Atm.
 Atom     1 has atomic number  8 and mass  15.99491

 Molecular mass:   115.03952 amu.
 Principal axes and moments of inertia in atomic units:
                           1         2         3
     Eigenvalues --   286.971872617.814502730.40059
           X            0.99993   0.00870  -0.00838
           Y           -0.00878   0.99992  -0.00946
           Z            0.00829   0.00953   0.99992
 This molecule is an asymmetric top.
 Rotational symmetry number  1.
 Rotational temperatures (Kelvin)      0.30182     0.03309     0.03172
 Rotational constants (GHZ):           6.28891     0.68941     0.66098
    3 imaginary frequencies ignored.
 Zero-point vibrational energy     280392.4 (Joules/Mol)
                                   67.01540 (Kcal/Mol)
 Warning -- explicit consideration of  10 degrees of freedom as
           vibrations may cause significant error
 Vibrational temperatures:    111.24   165.57   223.35   261.67   325.27
          (Kelvin)            403.14   485.33   582.27   624.35   822.21
                              903.45  1003.06  1124.11  1147.88  1282.22
                             1310.79  1421.86  1552.36  1622.25  1729.98
                             1847.74  1937.50  2013.10  2028.99  2059.71
                             2147.47  2160.32  2178.18  2643.83  3324.62
                             4425.43  4471.89  4533.85  4539.51  4569.21
                             5463.23

 Zero-point correction=                           0.106796 (Hartree/Particle)
 Thermal correction to Energy=                    0.115131
 Thermal correction to Enthalpy=                  0.116075
 Thermal correction to Gibbs Free Energy=         0.072618
 Sum of electronic and zero-point Energies=           -420.071532
 Sum of electronic and thermal Energies=              -420.063197
 Sum of electronic and thermal Enthalpies=            -420.062253
 Sum of electronic and thermal Free Energies=         -420.105710

                     E (Thermal)             CV                S
                      KCal/Mol        Cal/Mol-Kelvin    Cal/Mol-Kelvin
 Total                   72.246             28.812             91.463
 Electronic               0.000              0.000              1.377
 Translational            0.889              2.981             40.136
 Rotational               0.889              2.981             29.107
 Vibrational             70.468             22.850             20.843
 Vibration     1          0.599              1.964              3.958
 Vibration     2          0.608              1.937              3.181
 Vibration     3          0.620              1.897              2.607
 Vibration     4          0.630              1.864              2.309
 Vibration     5          0.650              1.801              1.910
 Vibration     6          0.680              1.710              1.532
 Vibration     7          0.718              1.601              1.225
 Vibration     8          0.770              1.460              0.946
 Vibration     9          0.795              1.396              0.846
 Vibration    10          0.928              1.093              0.501

 1\1\GINC-AJ\Freq\UM062X\6-311++G(d,p)\C5H7O3(2)\AAYUSH\23-Jun-2025\0\\
 # freq 6-311++g(d,p) m062x\\Title Card Required\\0,2\O,4.561641,-0.256
 787,0.320367\H,4.609235,0.648951,-0.02898\C,2.266087,-0.313446,-0.0774
 48\H,3.469856,-0.621922,-0.049856\C,1.106953,0.023709,-0.106502\C,-0.3
 01718,0.403137,-0.188995\O,-0.688696,1.531849,-0.063022\O,-1.072457,-0
 .656738,-0.424249\C,-2.49116,-0.405318,-0.509381\C,-3.105804,-0.282411
 ,0.870898\H,-2.878722,-1.267892,-1.048296\H,-2.650902,0.496754,-1.1010
 59\H,-4.187666,-0.16814,0.779645\H,-2.901034,-1.177747,1.459616\H,-2.7

 Normal termination of Gaussian 16 at Mon Jun 23 00:49:05 2025.
