 Gaussian 16, Revision A.03,
 Gaussian 16:  ES64L-G16RevA.03 25-Dec-2016

 --------------------------
 # freq 6-311++g(d,p) m062x
 --------------------------

 -------------------
 Title Card Required
 -------------------
 Symbolic Z-matrix:
 Charge =  0 Multiplicity = 2

                         Standard orientation:
 ---------------------------------------------------------------------
 Center     Atomic      Atomic             Coordinates (Angstroms)
 Number     Number       Type             X           Y           Z
 ---------------------------------------------------------------------
      1          8           0        4.565524   -0.256439    0.321194
      2          1           0        4.612907    0.650683   -0.027414
      3          6           0        2.266834   -0.314229   -0.077628
      4          1           0        3.391773   -0.627332   -0.058349
      5          6           0        1.108621    0.022707   -0.106693
      6          6           0       -0.300371    0.403203   -0.188976
      7          8           0       -0.687907    1.531961   -0.063936
      8          8           0       -1.071932   -0.656815   -0.423747
      9          6           0       -2.490519   -0.405188   -0.509004
     10          6           0       -3.105218   -0.281326    0.871199
     11          1           0       -2.878337   -1.268029   -1.047362
     12          1           0       -2.650231    0.496559   -1.101198
     13          1           0       -4.187082   -0.166939    0.779922
     14          1           0       -2.900558   -1.176328    1.460479
     15          1           0       -2.710032    0.590717    1.392444
 ---------------------------------------------------------------------

 SCF Done:  E(UM062X) =  -420.182954167     A.U. after   22 cycles

 The electronic state is 2-A.
 Alpha  occ. eigenvalues --  -19.71529 -19.68416 -19.63258 -10.70759 -10.60721
 Alpha  occ. eigenvalues --  -10.57550 -10.56833 -10.53896  -1.25754  -1.18888
 Alpha  occ. eigenvalues --   -1.16465  -0.90350  -0.86901  -0.78082  -0.71110
 Alpha  occ. eigenvalues --   -0.67063  -0.64069  -0.58711  -0.58537  -0.56491
 Alpha  occ. eigenvalues --   -0.53834  -0.49470  -0.47717  -0.46813  -0.45629
 Alpha  occ. eigenvalues --   -0.44807  -0.42155  -0.39450  -0.38641  -0.37059
 Alpha  occ. eigenvalues --   -0.36096
 Alpha virt. eigenvalues --   -0.01523  -0.00742   0.00116   0.01822   0.02340
 Alpha virt. eigenvalues --    0.02747   0.03896   0.05322   0.05463   0.06522
 Alpha virt. eigenvalues --    0.07053   0.07950   0.08300   0.08907   0.10240

  Beta  occ. eigenvalues --  -19.70089 -19.68420 -19.63253 -10.70754 -10.60721
  Beta  occ. eigenvalues --  -10.57121 -10.56750 -10.53896  -1.25754  -1.16459
  Beta  occ. eigenvalues --   -1.12634  -0.90129  -0.86406  -0.77787  -0.70212
  Beta  occ. eigenvalues --   -0.64527  -0.62481  -0.58534  -0.56517  -0.54459
  Beta  occ. eigenvalues --   -0.53187  -0.49445  -0.46809  -0.45471  -0.43673
  Beta  occ. eigenvalues --   -0.42153  -0.39247  -0.38634  -0.36508  -0.35886
  Beta virt. eigenvalues --   -0.14649  -0.01192  -0.00319   0.00218   0.01829
  Beta virt. eigenvalues --    0.02390   0.02844   0.04016   0.05465   0.05690
  Beta virt. eigenvalues --    0.06679   0.07146   0.07965   0.08464   0.08967

 Mulliken charges and spin densities:
               1          2
     1  O   -0.218008   0.793501
     2  H    0.267810  -0.019347
     3  C   -0.650801   0.249124
     4  H    0.378402  -0.021755
     5  C    1.142164   0.027066
     6  C   -0.936791  -0.029099
     7  O   -0.213528   0.001002
     8  O    0.008678   0.000236
     9  C   -0.280795  -0.000899
    10  C   -0.402934   0.000269
    11  H    0.196419  -0.000068
    12  H    0.193255   0.000089
    13  H    0.164819   0.000000
    14  H    0.166893  -0.000010
    15  H    0.184419  -0.000108
 Sum of Mulliken charges =  -0.00000   1.00000

 Dipole moment (field-independent basis, Debye):
    X=             -0.3772    Y=             -0.3054    Z=             -0.7839  Tot=              0.9219
 Quadrupole moment (field-independent basis, Debye-Ang):
   XX=            -32.7095   YY=            -52.2378   ZZ=            -48.0690
   XY=              8.0335   XZ=             -2.4312   YZ=             -0.4175

  Exact polarizability: 124.745  -5.477  60.243   1.986   0.505  50.181
 Approx polarizability: 113.919 -11.397  78.541   3.143   1.278  57.188

 ******    3 imaginary frequencies (negative Signs) ******

                      1                      2                      3
                      A                      A                      A
 Frequencies --   -465.9731              -202.7359              -119.9646
 Red. masses --      2.0680                 2.5976                 5.8997
 Frc consts  --      0.2646                 0.0629                 0.0500
 IR Inten    --    100.7767                10.5226                 7.9557

                      4                      5                      6
                      A                      A                      A
 Frequencies --     75.1364               113.9953               154.0556
 Red. masses --      3.6848                 3.5782                 2.7701
 Frc consts  --      0.0123                 0.0274                 0.0387
 IR Inten    --      1.3369                 0.7317                22.9559

                      7                      8                      9
                      A                      A                      A
 Frequencies --    180.3477               227.6446               278.8038
 Red. masses --      1.5698                 1.2831                 3.4890
 Frc consts  --      0.0301                 0.0392                 0.1598
 IR Inten    --     81.5792                 2.6482                22.6465

                     10                     11                     12
                      A                      A                      A
 Frequencies --    337.9294               422.3359               524.0815
 Red. masses --      2.9537                 4.1724                 3.4756
 Frc consts  --      0.1987                 0.4385                 0.5624
 IR Inten    --      9.6773                 1.8582                 4.0781

                     13                     14                     15
                      A                      A                      A
 Frequencies --    582.9604               661.2678               703.1805
 Red. masses --      5.1655                 1.6218                 1.5052
 Frc consts  --      1.0343                 0.4178                 0.4385
 IR Inten    --     15.5115                55.0488               120.3642

                     16                     17                     18
                      A                      A                      A
 Frequencies --    783.6165               796.8175               885.1175
 Red. masses --      7.4196                 1.2782                 2.3745
 Frc consts  --      2.6843                 0.4782                 1.0960
 IR Inten    --     26.7646                 6.3945                89.3358

                     19                     20                     21
                      A                      A                      A
 Frequencies --    901.0386               964.8213              1076.6797
 Red. masses --      2.1347                 1.6840                 3.8866
 Frc consts  --      1.0211                 0.9236                 2.6546
 IR Inten    --     22.2836                53.0699                29.7851

                     22                     23                     24
                      A                      A                      A
 Frequencies --   1127.3499              1201.8407              1279.6048
 Red. masses --      2.0802                 1.7710                 3.9974
 Frc consts  --      1.5577                 1.5071                 3.8564
 IR Inten    --     24.5102                 6.0694               727.3589

                     25                     26                     27
                      A                      A                      A
 Frequencies --   1346.3252              1400.2998              1429.8346
 Red. masses --      1.1978                 1.2649                 1.3668
 Frc consts  --      1.2792                 1.4614                 1.6464
 IR Inten    --     86.3207                25.9014                 9.6854

                     28                     29                     30
                      A                      A                      A
 Frequencies --   1492.5205              1501.2992              1513.6341
 Red. masses --      1.0413                 1.0686                 1.0747
 Frc consts  --      1.3667                 1.4190                 1.4506
 IR Inten    --     10.9243                 3.9568                15.6008

                     31                     32                     33
                      A                      A                      A
 Frequencies --   1612.4844              1839.1618              2386.0219
 Red. masses --      1.3124                11.3111                 6.6537
 Frc consts  --      2.0105                22.5421                22.3185
 IR Inten    --     50.9301               370.5931                35.0372

                     34                     35                     36
                      A                      A                      A
 Frequencies --   3075.7190              3107.9554              3150.9796
 Red. masses --      1.0354                 1.0607                 1.1015
 Frc consts  --      5.7708                 6.0365                 6.4433
 IR Inten    --     10.6735                18.8483                15.5035

                     37                     38                     39
                      A                      A                      A
 Frequencies --   3154.9883              3175.5612              3783.7107
 Red. masses --      1.1049                 1.1074                 1.0667
 Frc consts  --      6.4798                 6.5792                 8.9980
 IR Inten    --      2.2122                15.0828                84.3412

 - Thermochemistry -
 -------------------
 Temperature   298.150 Kelvin.  Pressure   1.00000 Atm.
 Atom     1 has atomic number  8 and mass  15.99491

 Molecular mass:   115.03952 amu.
 Principal axes and moments of inertia in atomic units:
                           1         2         3
     Eigenvalues --   287.026222617.815352730.40421
           X            0.99993   0.00874  -0.00841
           Y           -0.00882   0.99992  -0.00917
           Z            0.00833   0.00925   0.99992
 This molecule is an asymmetric top.
 Rotational symmetry number  1.
 Rotational temperatures (Kelvin)      0.30176     0.03309     0.03172
 Rotational constants (GHZ):           6.28772     0.68941     0.66098
    3 imaginary frequencies ignored.
 Zero-point vibrational energy     282612.5 (Joules/Mol)
                                   67.54601 (Kcal/Mol)
 Warning -- explicit consideration of  10 degrees of freedom as
           vibrations may cause significant error
 Vibrational temperatures:    108.10   164.01   221.65   259.48   327.53
          (Kelvin)            401.14   486.21   607.65   754.04   838.75
                              951.42  1011.72  1127.45  1146.44  1273.49
                             1296.39  1388.16  1549.10  1622.01  1729.18
                             1841.07  1937.06  2014.72  2057.21  2147.40
                             2160.03  2177.78  2320.01  2646.14  3432.95
                             4425.27  4471.65  4533.56  4539.32  4568.92
                             5443.92

 Zero-point correction=                           0.107641 (Hartree/Particle)
 Thermal correction to Energy=                    0.115877
 Thermal correction to Enthalpy=                  0.116821
 Thermal correction to Gibbs Free Energy=         0.073495
 Sum of electronic and zero-point Energies=           -420.075313
 Sum of electronic and thermal Energies=              -420.067078
 Sum of electronic and thermal Enthalpies=            -420.066133
 Sum of electronic and thermal Free Energies=         -420.109459

                     E (Thermal)             CV                S
                      KCal/Mol        Cal/Mol-Kelvin    Cal/Mol-Kelvin
 Total                   72.714             28.473             91.186
 Electronic               0.000              0.000              1.377
 Translational            0.889              2.981             40.136
 Rotational               0.889              2.981             29.108
 Vibrational             70.936             22.511             20.565
 Vibration     1          0.599              1.966              4.014
 Vibration     2          0.607              1.938              3.200
 Vibration     3          0.620              1.898              2.622
 Vibration     4          0.629              1.866              2.325
 Vibration     5          0.651              1.799              1.897
 Vibration     6          0.679              1.713              1.541
 Vibration     7          0.718              1.600              1.222
 Vibration     8          0.785              1.422              0.884
 Vibration     9          0.879              1.197              0.601
 Vibration    10          0.940              1.068              0.480

 1\1\GINC-AJ\Freq\UM062X\6-311++G(d,p)\C5H7O3(2)\AAYUSH\23-Jun-2025\0\\
 # freq 6-311++g(d,p) m062x\\Title Card Required\\0,2\O,4.565524,-0.256
 439,0.321194\H,4.612907,0.650683,-0.027414\C,2.266834,-0.314229,-0.077
 628\H,3.391773,-0.627332,-0.058349\C,1.108621,0.022707,-0.106693\C,-0.
 300371,0.403203,-0.188976\O,-0.687907,1.531961,-0.063936\O,-1.071932,-
 0.656815,-0.423747\C,-2.490519,-0.405188,-0.509004\C,-3.105218,-0.2813
 26,0.871199\H,-2.878337,-1.268029,-1.047362\H,-2.650231,0.496559,-1.10
 1198\H,-4.187082,-0.166939,0.779922\H,-2.900558,-1.176328,1.460479\H,-

 Normal termination of Gaussian 16 at Mon Jun 23 00:25:01 2025.
