 Gaussian 16, Revision A.03,
 Gaussian 16:  ES64L-G16RevA.03 25-Dec-2016

 -------------------
 # freq 6-31+g m062x
 -------------------

 -------------------
 Title Card Required
 -------------------
 Symbolic Z-matrix:
 Charge =  0 Multiplicity = 2

                         Standard orientation:
 ---------------------------------------------------------------------
 Center     Atomic      Atomic             Coordinates (Angstroms)
 Number     Number       Type             X           Y           Z
 ---------------------------------------------------------------------
      1          8           0        4.558051   -0.253680    0.322087
      2          1           0        4.598760    0.643073   -0.038477
      3          6           0        2.258692   -0.310087   -0.075928
      4          1           0        3.674656   -0.651378   -0.067115
      5          6           0        1.100735    0.027683   -0.105315
      6          6           0       -0.305785    0.403132   -0.189484
      7          8           0       -0.691401    1.531818   -0.062532
      8          8           0       -1.073853   -0.657120   -0.424343
      9          6           0       -2.492804   -0.406735   -0.509576
     10          6           0       -3.107338   -0.284428    0.870708
     11          1           0       -2.879528   -1.269469   -1.048698
     12          1           0       -2.652829    0.495305   -1.101208
     13          1           0       -4.189231   -0.170890    0.779329
     14          1           0       -2.902063   -1.179732    1.459265
     15          1           0       -2.713136    0.587566    1.392792
 ---------------------------------------------------------------------

 SCF Done:  E(UM062X) =  -419.917871915     A.U. after   24 cycles

 The electronic state is 2-A.
 Alpha  occ. eigenvalues --  -19.71846 -19.71204 -19.66894 -10.73577 -10.62013
 Alpha  occ. eigenvalues --  -10.61864 -10.59396 -10.54962  -1.28610  -1.20809
 Alpha  occ. eigenvalues --   -1.19236  -0.91839  -0.88382  -0.79026  -0.71692
 Alpha  occ. eigenvalues --   -0.68485  -0.64894  -0.58973  -0.57320  -0.56064
 Alpha  occ. eigenvalues --   -0.54519  -0.50021  -0.47400  -0.46514  -0.45854
 Alpha  occ. eigenvalues --   -0.43214  -0.42297  -0.40054  -0.38862  -0.38387
 Alpha  occ. eigenvalues --   -0.37277
 Alpha virt. eigenvalues --   -0.02314   0.01386   0.02091   0.03337   0.03849
 Alpha virt. eigenvalues --    0.04628   0.04866   0.06449   0.07327   0.08312
 Alpha virt. eigenvalues --    0.08792   0.09012   0.09195   0.10592   0.12357

  Beta  occ. eigenvalues --  -19.71213 -19.70875 -19.66894 -10.73557 -10.62014
  Beta  occ. eigenvalues --  -10.60864 -10.59313 -10.54962  -1.28612  -1.19243
  Beta  occ. eigenvalues --   -1.17553  -0.91269  -0.87457  -0.78593  -0.70979
  Beta  occ. eigenvalues --   -0.65385  -0.64661  -0.58989  -0.57350  -0.54644
  Beta  occ. eigenvalues --   -0.50511  -0.50004  -0.47385  -0.45804  -0.43481
  Beta  occ. eigenvalues --   -0.42449  -0.39571  -0.38860  -0.37103  -0.36531
  Beta virt. eigenvalues --   -0.17111  -0.01480   0.01741   0.02204   0.03370
  Beta virt. eigenvalues --    0.04480   0.04696   0.04936   0.06559   0.07580
  Beta virt. eigenvalues --    0.08351   0.08821   0.09045   0.09406   0.10823

 Mulliken charges and spin densities:
               1          2
     1  O   -0.545871   0.436702
     2  H    0.428846  -0.015422
     3  C    1.489681   0.253025
     4  H    0.499258  -0.036187
     5  C   -0.540647   0.302112
     6  C   -1.084781   0.062084
     7  O   -0.349677  -0.001320
     8  O   -0.206543  -0.000875
     9  C   -0.253795   0.000547
    10  C   -0.560049  -0.000492
    11  H    0.222269  -0.000040
    12  H    0.233384  -0.000061
    13  H    0.209635  -0.000088
    14  H    0.221762  -0.000004
    15  H    0.236529   0.000017
 Sum of Mulliken charges =  -0.00000   1.00000

 Dipole moment (field-independent basis, Debye):
    X=             -1.2185    Y=             -0.1116    Z=             -1.2117  Tot=              1.7220
 Quadrupole moment (field-independent basis, Debye-Ang):
   XX=            -38.2736   YY=            -53.2805   ZZ=            -48.4816
   XY=              8.8282   XZ=             -4.4596   YZ=             -0.3374

  Exact polarizability: 135.990  -7.541  59.468   2.997   0.531  46.461
 Approx polarizability: 117.511 -13.746  75.240   4.134   2.105  47.965

 ******    5 imaginary frequencies (negative Signs) ******

                      1                      2                      3
                      A                      A                      A
 Frequencies --   -940.7857              -487.1478              -157.6465
 Red. masses --      1.0296                 1.0511                 2.8583
 Frc consts  --      0.5369                 0.1470                 0.0419
 IR Inten    --    229.9547               122.2948                47.7640

                      4                      5                      6
                      A                      A                      A
 Frequencies --    -70.3827               -22.6542                61.3920
 Red. masses --      6.5256                 2.9857                 4.2692
 Frc consts  --      0.0190                 0.0009                 0.0095
 IR Inten    --      3.3578                 0.5614                14.0736

                      7                      8                      9
                      A                      A                      A
 Frequencies --    100.1748               183.2158               237.4170
 Red. masses --      4.7771                 1.2747                 3.7669
 Frc consts  --      0.0282                 0.0252                 0.1251
 IR Inten    --      5.2755                 4.2596                45.6917

                     10                     11                     12
                      A                      A                      A
 Frequencies --    308.9010               320.9289               416.5862
 Red. masses --      2.7391                 4.9046                 2.8206
 Frc consts  --      0.1540                 0.2976                 0.2884
 IR Inten    --      2.8060                14.3167                50.3151

                     13                     14                     15
                      A                      A                      A
 Frequencies --    442.9109               585.2720               624.7151
 Red. masses --      2.5068                 4.9791                 8.3994
 Frc consts  --      0.2897                 1.0049                 1.9314
 IR Inten    --    122.7320                 7.3864                52.5847

                     16                     17                     18
                      A                      A                      A
 Frequencies --    799.6704               815.6421               898.6531
 Red. masses --      6.8423                 1.3634                 3.3430
 Frc consts  --      2.5780                 0.5344                 1.5906
 IR Inten    --     14.0449                 5.5559                10.8293

                     19                     20                     21
                      A                      A                      A
 Frequencies --    946.6579              1111.7190              1157.0571
 Red. masses --      2.6236                 4.2012                 2.0774
 Frc consts  --      1.3853                 3.0593                 1.6386
 IR Inten    --      2.6888                 8.2528                21.5767

                     22                     23                     24
                      A                      A                      A
 Frequencies --   1226.8795              1285.9477              1326.6596
 Red. masses --      1.7526                 1.1896                 2.0854
 Frc consts  --      1.5543                 1.1590                 2.1625
 IR Inten    --      5.9747                77.9930               455.2512

                     25                     26                     27
                      A                      A                      A
 Frequencies --   1370.6799              1442.8804              1456.1829
 Red. masses --      1.6500                 1.3660                 1.2645
 Frc consts  --      1.8265                 1.6756                 1.5797
 IR Inten    --    335.0366                47.4370                15.8817

                     28                     29                     30
                      A                      A                      A
 Frequencies --   1528.1283              1535.9263              1544.8317
 Red. masses --      1.0422                 1.0761                 1.0673
 Frc consts  --      1.4339                 1.4957                 1.5007
 IR Inten    --     14.9336                 7.8417                22.8742

                     31                     32                     33
                      A                      A                      A
 Frequencies --   1906.2602              2173.9532              2374.3088
 Red. masses --     12.4054                 1.3344                 3.7221
 Frc consts  --     26.5599                 3.7156                12.3628
 IR Inten    --    311.1673               876.5797                28.4656

                     34                     35                     36
                      A                      A                      A
 Frequencies --   3108.1966              3138.3002              3188.3310
 Red. masses --      1.0351                 1.0602                 1.1007
 Frc consts  --      5.8918                 6.1522                 6.5926
 IR Inten    --     13.3101                20.1232                12.8489

                     37                     38                     39
                      A                      A                      A
 Frequencies --   3191.2896              3212.2587              3866.1454
 Red. masses --      1.1022                 1.1053                 1.0653
 Frc consts  --      6.6136                 6.7197                 9.3817
 IR Inten    --      7.5872                17.3810               109.6403

 - Thermochemistry -
 -------------------
 Temperature   298.150 Kelvin.  Pressure   1.00000 Atm.
 Atom     1 has atomic number  8 and mass  15.99491

 Molecular mass:   115.03952 amu.
 Principal axes and moments of inertia in atomic units:
                           1         2         3
     Eigenvalues --   287.113712620.381852733.00551
           X            0.99993   0.00832  -0.00849
           Y           -0.00840   0.99992  -0.00946
           Z            0.00841   0.00953   0.99992
 This molecule is an asymmetric top.
 Rotational symmetry number  1.
 Rotational temperatures (Kelvin)      0.30167     0.03305     0.03169
 Rotational constants (GHZ):           6.28581     0.68873     0.66035
    5 imaginary frequencies ignored.
 Zero-point vibrational energy     286434.3 (Joules/Mol)
                                   68.45944 (Kcal/Mol)
 Warning -- explicit consideration of   9 degrees of freedom as
           vibrations may cause significant error
 Vibrational temperatures:     88.33   144.13   263.61   341.59   444.44
          (Kelvin)            461.75   599.37   637.25   842.08   898.83
                             1150.55  1173.53  1292.96  1362.03  1599.52
                             1664.75  1765.21  1850.19  1908.77  1972.10
                             2075.98  2095.12  2198.64  2209.86  2222.67
                             2742.68  3127.83  3416.10  4472.00  4515.31
                             4587.30  4591.55  4621.72  5562.52

 Zero-point correction=                           0.109097 (Hartree/Particle)
 Thermal correction to Energy=                    0.116616
 Thermal correction to Enthalpy=                  0.117561
 Thermal correction to Gibbs Free Energy=         0.075358
 Sum of electronic and zero-point Energies=           -419.808775
 Sum of electronic and thermal Energies=              -419.801255
 Sum of electronic and thermal Enthalpies=            -419.800311
 Sum of electronic and thermal Free Energies=         -419.842514

                     E (Thermal)             CV                S
                      KCal/Mol        Cal/Mol-Kelvin    Cal/Mol-Kelvin
 Total                   73.178             25.394             88.823
 Electronic               0.000              0.000              1.377
 Translational            0.889              2.981             40.136
 Rotational               0.889              2.981             29.110
 Vibrational             71.400             19.433             18.201
 Vibration     1          0.597              1.973              4.412
 Vibration     2          0.604              1.949              3.451
 Vibration     3          0.631              1.863              2.295
 Vibration     4          0.656              1.783              1.822
 Vibration     5          0.698              1.657              1.368
 Vibration     6          0.706              1.633              1.305
 Vibration     7          0.780              1.434              0.904
 Vibration     8          0.803              1.377              0.818
 Vibration     9          0.942              1.063              0.476

 Normal termination of Gaussian 16 at Fri Jun 20 12:21:56 2025.
