 Gaussian 16, Revision A.03,
 Gaussian 16:  ES64L-G16RevA.03 25-Dec-2016

 -------------------
 # freq 6-31+g m062x
 -------------------

 -------------------
 Title Card Required
 -------------------
 Symbolic Z-matrix:
 Charge =  0 Multiplicity = 2

                         Standard orientation:
 ---------------------------------------------------------------------
 Center     Atomic      Atomic             Coordinates (Angstroms)
 Number     Number       Type             X           Y           Z
 ---------------------------------------------------------------------
      1          8           0        4.557788   -0.255080    0.321131
      2          1           0        4.601868    0.644735   -0.034536
      3          6           0        2.261022   -0.311117   -0.076420
      4          1           0        3.626442   -0.636766   -0.054197
      5          6           0        1.102606    0.026414   -0.105725
      6          6           0       -0.304656    0.403068   -0.189382
      7          8           0       -0.690622    1.531755   -0.062698
      8          8           0       -1.073488   -0.657004   -0.424447
      9          6           0       -2.492397   -0.406292   -0.509698
     10          6           0       -3.107021   -0.283882    0.870562
     11          1           0       -2.879326   -1.268949   -1.048828
     12          1           0       -2.652286    0.495786   -1.101310
     13          1           0       -4.188896   -0.170107    0.779171
     14          1           0       -2.901939   -1.179232    1.459121
     15          1           0       -2.712612    0.588018    1.392648
 ---------------------------------------------------------------------

 SCF Done:  E(UM062X) =  -419.919274589     A.U. after   23 cycles

 The electronic state is 2-A.
 Alpha  occ. eigenvalues --  -19.72363 -19.71146 -19.66832 -10.73518 -10.61973
 Alpha  occ. eigenvalues --  -10.61487 -10.59290 -10.54930  -1.28539  -1.20745
 Alpha  occ. eigenvalues --   -1.19166  -0.91707  -0.88273  -0.78965  -0.71715
 Alpha  occ. eigenvalues --   -0.68462  -0.64830  -0.58913  -0.57266  -0.56515
 Alpha  occ. eigenvalues --   -0.54512  -0.49974  -0.47362  -0.46666  -0.45812
 Alpha  occ. eigenvalues --   -0.43304  -0.42286  -0.39954  -0.38800  -0.38233
 Alpha  occ. eigenvalues --   -0.37169
 Alpha virt. eigenvalues --   -0.02224   0.01355   0.02103   0.03362   0.03920
 Alpha virt. eigenvalues --    0.04653   0.04899   0.06479   0.07364   0.08335
 Alpha virt. eigenvalues --    0.08807   0.09023   0.09229   0.10618   0.12381

  Beta  occ. eigenvalues --  -19.71301 -19.71154 -19.66831 -10.73500 -10.61974
  Beta  occ. eigenvalues --  -10.60561 -10.59210 -10.54931  -1.28541  -1.19171
  Beta  occ. eigenvalues --   -1.17128  -0.91197  -0.87408  -0.78557  -0.70956
  Beta  occ. eigenvalues --   -0.65195  -0.64434  -0.58926  -0.57284  -0.54609
  Beta  occ. eigenvalues --   -0.50853  -0.49958  -0.47339  -0.45760  -0.43589
  Beta  occ. eigenvalues --   -0.42417  -0.39523  -0.38803  -0.37061  -0.36490
  Beta virt. eigenvalues --   -0.17149  -0.01490   0.01729   0.02204   0.03391
  Beta virt. eigenvalues --    0.04520   0.04721   0.04959   0.06586   0.07595
  Beta virt. eigenvalues --    0.08376   0.08853   0.09052   0.09419   0.10843

 Mulliken charges and spin densities:
               1          2
     1  O   -0.524441   0.499115
     2  H    0.426524  -0.017396
     3  C    1.430511   0.182258
     4  H    0.502260  -0.042421
     5  C   -0.522505   0.317271
     6  C   -1.065349   0.062934
     7  O   -0.350016  -0.000929
     8  O   -0.206661  -0.000740
     9  C   -0.253113   0.000483
    10  C   -0.560293  -0.000420
    11  H    0.222128  -0.000035
    12  H    0.233302  -0.000054
    13  H    0.209485  -0.000078
    14  H    0.221674  -0.000003
    15  H    0.236493   0.000015
 Sum of Mulliken charges =  -0.00000   1.00000

 Dipole moment (field-independent basis, Debye):
    X=             -1.0930    Y=             -0.0707    Z=             -1.1383  Tot=              1.5797
 Quadrupole moment (field-independent basis, Debye-Ang):
   XX=            -37.4064   YY=            -53.3635   ZZ=            -48.4842
   XY=              8.9878   XZ=             -4.1171   YZ=             -0.3718

  Exact polarizability: 133.723  -7.205  59.208   3.230   0.484  46.332
 Approx polarizability: 117.323 -13.642  75.078   4.266   1.998  47.886

 ******    5 imaginary frequencies (negative Signs) ******

                      1                      2                      3
                      A                      A                      A
 Frequencies --  -1101.1063              -478.9357              -149.2279
 Red. masses --      1.0275                 1.0488                 3.3203
 Frc consts  --      0.7340                 0.1417                 0.0436
 IR Inten    --    337.2448               115.9516                34.9181

                      4                      5                      6
                      A                      A                      A
 Frequencies --    -70.8055               -22.3338                64.8164
 Red. masses --      6.7510                 2.9835                 4.3567
 Frc consts  --      0.0199                 0.0009                 0.0108
 IR Inten    --      3.8295                 0.4958                14.5339

                      7                      8                      9
                      A                      A                      A
 Frequencies --    105.9982               184.1226               251.3598
 Red. masses --      4.2669                 1.2753                 3.8915
 Frc consts  --      0.0282                 0.0255                 0.1449
 IR Inten    --      4.6252                 3.0430                32.3570

                     10                     11                     12
                      A                      A                      A
 Frequencies --    314.0177               348.2845               422.5061
 Red. masses --      2.9486                 5.3538                 3.6833
 Frc consts  --      0.1713                 0.3826                 0.3874
 IR Inten    --      6.3314                10.9317                 9.3477

                     13                     14                     15
                      A                      A                      A
 Frequencies --    501.7984               588.8088               630.3304
 Red. masses --      1.7654                 4.5936                 7.7421
 Frc consts  --      0.2619                 0.9383                 1.8124
 IR Inten    --    165.0939                18.3404                48.9117

                     16                     17                     18
                      A                      A                      A
 Frequencies --    801.9772               816.1571               897.9949
 Red. masses --      5.0375                 1.4666                 3.3184
 Frc consts  --      1.9089                 0.5756                 1.5766
 IR Inten    --     14.6715                 5.2344                11.0064

                     19                     20                     21
                      A                      A                      A
 Frequencies --    944.4852              1109.8418              1155.2972
 Red. masses --      2.5442                 3.8825                 1.9269
 Frc consts  --      1.3372                 2.8176                 1.5153
 IR Inten    --      3.2719                15.4987                15.7189

                     22                     23                     24
                      A                      A                      A
 Frequencies --   1175.6077              1227.5855              1325.6353
 Red. masses --      1.3364                 1.7620                 2.1717
 Frc consts  --      1.0882                 1.5645                 2.2485
 IR Inten    --     65.6523                 5.8909               484.3529

                     25                     26                     27
                      A                      A                      A
 Frequencies --   1370.2586              1442.7157              1456.0915
 Red. masses --      1.6348                 1.3644                 1.2641
 Frc consts  --      1.8085                 1.6733                 1.5791
 IR Inten    --    329.2655                46.2246                16.0087

                     28                     29                     30
                      A                      A                      A
 Frequencies --   1528.1099              1535.8878              1544.8109
 Red. masses --      1.0422                 1.0763                 1.0670
 Frc consts  --      1.4339                 1.4959                 1.5003
 IR Inten    --     14.9486                 7.8681                22.5985

                     31                     32                     33
                      A                      A                      A
 Frequencies --   1887.6759              1906.1270              2352.1548
 Red. masses --      1.1140                10.5309                 8.9089
 Frc consts  --      2.3387                22.5434                29.0407
 IR Inten    --    638.0162               373.7879                29.0178

                     34                     35                     36
                      A                      A                      A
 Frequencies --   3108.1455              3138.2350              3188.2289
 Red. masses --      1.0351                 1.0602                 1.1007
 Frc consts  --      5.8916                 6.1518                 6.5923
 IR Inten    --     13.3689                20.2365                12.8294

                     37                     38                     39
                      A                      A                      A
 Frequencies --   3191.2076              3212.1725              3851.7784
 Red. masses --      1.1022                 1.1053                 1.0652
 Frc consts  --      6.6132                 6.7193                 9.3111
 IR Inten    --      7.6915                17.4367               102.9642

 - Thermochemistry -
 -------------------
 Temperature   298.150 Kelvin.  Pressure   1.00000 Atm.
 Atom     1 has atomic number  8 and mass  15.99491

 Molecular mass:   115.03952 amu.
 Principal axes and moments of inertia in atomic units:
                           1         2         3
     Eigenvalues --   287.019962619.311602731.91812
           X            0.99993   0.00846  -0.00847
           Y           -0.00854   0.99992  -0.00936
           Z            0.00839   0.00943   0.99992
 This molecule is an asymmetric top.
 Rotational symmetry number  1.
 Rotational temperatures (Kelvin)      0.30177     0.03307     0.03170
 Rotational constants (GHZ):           6.28786     0.68901     0.66061
    5 imaginary frequencies ignored.
 Zero-point vibrational energy     284592.9 (Joules/Mol)
                                   68.01935 (Kcal/Mol)
 Warning -- explicit consideration of   9 degrees of freedom as
           vibrations may cause significant error
 Vibrational temperatures:     93.26   152.51   264.91   361.65   451.80
          (Kelvin)            501.10   607.89   721.98   847.16   906.90
                             1153.87  1174.27  1292.01  1358.90  1596.81
                             1662.21  1691.44  1766.22  1907.29  1971.50
                             2075.75  2094.99  2198.61  2209.80  2222.64
                             2715.94  2742.49  3384.23  4471.93  4515.22
                             4587.15  4591.44  4621.60  5541.85

 Zero-point correction=                           0.108396 (Hartree/Particle)
 Thermal correction to Energy=                    0.115788
 Thermal correction to Enthalpy=                  0.116732
 Thermal correction to Gibbs Free Energy=         0.074847
 Sum of electronic and zero-point Energies=           -419.810879
 Sum of electronic and thermal Energies=              -419.803487
 Sum of electronic and thermal Enthalpies=            -419.802542
 Sum of electronic and thermal Free Energies=         -419.844428

                     E (Thermal)             CV                S
                      KCal/Mol        Cal/Mol-Kelvin    Cal/Mol-Kelvin
 Total                   72.658             25.218             88.156
 Electronic               0.000              0.000              1.377
 Translational            0.889              2.981             40.136
 Rotational               0.889              2.981             29.109
 Vibrational             70.881             19.256             17.534
 Vibration     1          0.597              1.971              4.305
 Vibration     2          0.605              1.944              3.341
 Vibration     3          0.631              1.861              2.286
 Vibration     4          0.663              1.760              1.721
 Vibration     5          0.702              1.647              1.341
 Vibration     6          0.726              1.579              1.174
 Vibration     7          0.785              1.421              0.883
 Vibration     8          0.857              1.246              0.654
 Vibration     9          0.946              1.056              0.469

 Normal termination of Gaussian 16 at Fri Jun 20 12:29:17 2025.
