 Gaussian 16, Revision A.03,
 Gaussian 16:  ES64L-G16RevA.03 25-Dec-2016

 --------------------------
 # freq 6-311++g(d,p) m062x
 --------------------------

 -------------------
 Title Card Required
 -------------------
 Symbolic Z-matrix:
 Charge =  0 Multiplicity = 2

                         Standard orientation:
 ---------------------------------------------------------------------
 Center     Atomic      Atomic             Coordinates (Angstroms)
 Number     Number       Type             X           Y           Z
 ---------------------------------------------------------------------
      1          8           0        4.560898   -0.247420    0.329030
      2          1           0        4.588946    0.637436   -0.055041
      3          6           0        2.252067   -0.306808   -0.072208
      4          1           0        3.803114   -0.708519   -0.126597
      5          6           0        1.095181    0.031241   -0.103453
      6          6           0       -0.309056    0.403259   -0.190573
      7          8           0       -0.694179    1.532133   -0.065478
      8          8           0       -1.074894   -0.658443   -0.422829
      9          6           0       -2.493756   -0.409379   -0.509040
     10          6           0       -3.108506   -0.284315    0.870844
     11          1           0       -2.879795   -1.273566   -1.046295
     12          1           0       -2.654192    0.491229   -1.102757
     13          1           0       -4.190453   -0.171781    0.778964
     14          1           0       -2.902713   -1.178117    1.461495
     15          1           0       -2.715089    0.589171    1.391019
 ---------------------------------------------------------------------

 SCF Done:  E(UM062X) =  -420.175818072     A.U. after   24 cycles

 The electronic state is 2-A.
 Alpha  occ. eigenvalues --  -19.68932 -19.67777 -19.63877 -10.71327 -10.61075
 Alpha  occ. eigenvalues --  -10.60821 -10.57873 -10.54184  -1.26371  -1.18509
 Alpha  occ. eigenvalues --   -1.17091  -0.91288  -0.87759  -0.78561  -0.70899
 Alpha  occ. eigenvalues --   -0.66885  -0.64705  -0.59080  -0.57055  -0.55312
 Alpha  occ. eigenvalues --   -0.54055  -0.49904  -0.47240  -0.46399  -0.45879
 Alpha  occ. eigenvalues --   -0.42708  -0.42127  -0.40203  -0.39131  -0.38406
 Alpha  occ. eigenvalues --   -0.37147
 Alpha virt. eigenvalues --   -0.02292  -0.00388   0.00138   0.01633   0.02276
 Alpha virt. eigenvalues --    0.02683   0.03464   0.04887   0.05320   0.06135
 Alpha virt. eigenvalues --    0.06921   0.07745   0.08055   0.08650   0.10270

  Beta  occ. eigenvalues --  -19.68943 -19.67101 -19.63874 -10.71305 -10.61076
  Beta  occ. eigenvalues --  -10.59610 -10.57755 -10.54184  -1.26378  -1.17094
  Beta  occ. eigenvalues --   -1.16069  -0.90637  -0.86607  -0.77967  -0.70209
  Beta  occ. eigenvalues --   -0.64866  -0.64141  -0.59086  -0.57103  -0.54278
  Beta  occ. eigenvalues --   -0.50696  -0.49883  -0.47253  -0.45856  -0.42977
  Beta  occ. eigenvalues --   -0.42464  -0.39689  -0.39145  -0.36835  -0.36224
  Beta virt. eigenvalues --   -0.15552  -0.01142  -0.00185   0.00391   0.01657
  Beta virt. eigenvalues --    0.02284   0.02969   0.03619   0.05311   0.05815
  Beta virt. eigenvalues --    0.06742   0.06971   0.07762   0.08130   0.08665

 Mulliken charges and spin densities:
               1          2
     1  O   -0.327582   0.274777
     2  H    0.275177  -0.007436
     3  C   -0.598044   0.796228
     4  H    0.386006  -0.035031
     5  C    1.095254   0.071059
     6  C   -0.860998  -0.097133
     7  O   -0.207547  -0.000383
     8  O    0.011869  -0.000359
     9  C   -0.282038  -0.001553
    10  C   -0.403120   0.000192
    11  H    0.198144  -0.000180
    12  H    0.193852   0.000071
    13  H    0.166605  -0.000034
    14  H    0.167728  -0.000016
    15  H    0.184695  -0.000201
 Sum of Mulliken charges =  -0.00000   1.00000

 Dipole moment (field-independent basis, Debye):
    X=             -1.4173    Y=             -0.4852    Z=             -1.1715  Tot=              1.9017
 Quadrupole moment (field-independent basis, Debye-Ang):
   XX=            -39.4012   YY=            -51.7787   ZZ=            -48.0236
   XY=              7.2490   XZ=             -4.2420   YZ=             -0.1784

  Exact polarizability: 140.015  -8.417  62.457   1.449   0.616  51.159
 Approx polarizability: 120.142 -13.108  80.464   2.938   1.904  58.040

 ******    4 imaginary frequencies (negative Signs) ******

                      1                      2                      3
                      A                      A                      A
 Frequencies --   -507.1119              -141.1028               -48.2345
 Red. masses --      1.0380                 1.1332                 8.2464
 Frc consts  --      0.1573                 0.0133                 0.0113
 IR Inten    --    113.9526                64.8986                 0.4781

                      4                      5                      6
                      A                      A                      A
 Frequencies --    -27.5440                72.7277               109.5920
 Red. masses --      4.8937                 4.1611                 5.0302
 Frc consts  --      0.0022                 0.0130                 0.0356
 IR Inten    --      8.5797                 2.1925                 2.1619

                      7                      8                      9
                      A                      A                      A
 Frequencies --    125.7027               191.1071               229.8206
 Red. masses --      3.4474                 4.2655                 1.3524
 Frc consts  --      0.0321                 0.0918                 0.0421
 IR Inten    --      6.9864                75.8898                 5.7356

                     10                     11                     12
                      A                      A                      A
 Frequencies --    243.8895               333.1473               419.3208
 Red. masses --      8.4594                 2.8377                 3.7559
 Frc consts  --      0.2965                 0.1856                 0.3891
 IR Inten    --     11.9538                10.7150                10.0156

                     13                     14                     15
                      A                      A                      A
 Frequencies --    447.1562               551.1294               598.2224
 Red. masses --      1.0799                 6.0328                 7.0268
 Frc consts  --      0.1272                 1.0796                 1.4816
 IR Inten    --    147.3824                13.2455                48.4078

                     16                     17                     18
                      A                      A                      A
 Frequencies --    771.1065               798.8772               894.5392
 Red. masses --     10.2546                 1.2092                 3.0615
 Frc consts  --      3.5925                 0.4547                 1.4434
 IR Inten    --     16.8309                 4.9546                 7.6808

                     19                     20                     21
                      A                      A                      A
 Frequencies --    932.4222              1076.8508              1127.7354
 Red. masses --      2.9501                 4.1956                 2.0878
 Frc consts  --      1.5112                 2.8665                 1.5644
 IR Inten    --      3.6491                22.7972                26.7346

                     22                     23                     24
                      A                      A                      A
 Frequencies --   1202.9650              1287.5774              1347.7689
 Red. masses --      1.7788                 4.0963                 1.2196
 Frc consts  --      1.5166                 4.0011                 1.3053
 IR Inten    --      6.0135               779.6422               111.5345

                     25                     26                     27
                      A                      A                      A
 Frequencies --   1401.5015              1431.0854              1465.2764
 Red. masses --      1.2748                 1.3798                 1.0958
 Frc consts  --      1.4753                 1.6650                 1.3862
 IR Inten    --     36.3501                11.1846                59.6548

                     28                     29                     30
                      A                      A                      A
 Frequencies --   1492.7183              1501.6428              1514.1079
 Red. masses --      1.0412                 1.0672                 1.0789
 Frc consts  --      1.3670                 1.4178                 1.4573
 IR Inten    --     11.3037                 4.1625                19.2109

                     31                     32                     33
                      A                      A                      A
 Frequencies --   1839.9068              2230.8380              3013.1349
 Red. masses --     12.1513                11.1665                 1.0779
 Frc consts  --     24.2361                32.7420                 5.7658
 IR Inten    --    335.9164               109.8586               355.8104

                     34                     35                     36
                      A                      A                      A
 Frequencies --   3076.1298              3108.4687              3151.7260
 Red. masses --      1.0354                 1.0608                 1.1014
 Frc consts  --      5.7723                 6.0394                 6.4462
 IR Inten    --      9.9513                18.0329                15.0554

                     37                     38                     39
                      A                      A                      A
 Frequencies --   3155.5036              3176.2976              3880.8195
 Red. masses --      1.1048                 1.1074                 1.0677
 Frc consts  --      6.4817                 6.5825                 9.4743
 IR Inten    --      1.9284                14.5970               141.8384

 - Thermochemistry -
 -------------------
 Temperature   298.150 Kelvin.  Pressure   1.00000 Atm.
 Atom     1 has atomic number  8 and mass  15.99491

 Molecular mass:   115.03952 amu.
 Principal axes and moments of inertia in atomic units:
                           1         2         3
     Eigenvalues --   287.589392624.517332737.20846
           X            0.99993   0.00784  -0.00895
           Y           -0.00792   0.99994  -0.00801
           Z            0.00889   0.00808   0.99993
 This molecule is an asymmetric top.
 Rotational symmetry number  1.
 Rotational temperatures (Kelvin)      0.30117     0.03300     0.03164
 Rotational constants (GHZ):           6.27541     0.68765     0.65934
    4 imaginary frequencies ignored.
 Zero-point vibrational energy     288304.9 (Joules/Mol)
                                   68.90653 (Kcal/Mol)
 Warning -- explicit consideration of  11 degrees of freedom as
           vibrations may cause significant error
 Vibrational temperatures:    104.64   157.68   180.86   274.96   330.66
          (Kelvin)            350.90   479.32   603.31   643.36   792.95
                              860.71  1109.45  1149.41  1287.04  1341.55
                             1549.35  1622.56  1730.80  1852.54  1939.14
                             2016.45  2059.01  2108.21  2147.69  2160.53
                             2178.46  2647.22  3209.68  4335.23  4425.86
                             4472.39  4534.63  4540.07  4569.98  5583.63

 Zero-point correction=                           0.109810 (Hartree/Particle)
 Thermal correction to Energy=                    0.118098
 Thermal correction to Enthalpy=                  0.119042
 Thermal correction to Gibbs Free Energy=         0.075420
 Sum of electronic and zero-point Energies=           -420.066009
 Sum of electronic and thermal Energies=              -420.057720
 Sum of electronic and thermal Enthalpies=            -420.056776
 Sum of electronic and thermal Free Energies=         -420.100398

                     E (Thermal)             CV                S
                      KCal/Mol        Cal/Mol-Kelvin    Cal/Mol-Kelvin
 Total                   74.107             27.688             91.810
 Electronic               0.000              0.000              1.377
 Translational            0.889              2.981             40.136
 Rotational               0.889              2.981             29.115
 Vibrational             72.330             21.727             21.182
 Vibration     1          0.599              1.967              4.078
 Vibration     2          0.606              1.942              3.276
 Vibration     3          0.611              1.927              3.011
 Vibration     4          0.634              1.852              2.217
 Vibration     5          0.652              1.795              1.880
 Vibration     6          0.659              1.773              1.774
 Vibration     7          0.715              1.609              1.245
 Vibration     8          0.782              1.428              0.894
 Vibration     9          0.806              1.367              0.804
 Vibration    10          0.906              1.137              0.542
 Vibration    11          0.956              1.036              0.453

 1\1\GINC-AJ\Freq\UM062X\6-311++G(d,p)\C5H7O3(2)\AAYUSH\23-Jun-2025\0\\
 # freq 6-311++g(d,p) m062x\\Title Card Required\\0,2\O,4.560898,-0.247
 42,0.32903\H,4.588946,0.637436,-0.055041\C,2.252067,-0.306808,-0.07220
 8\H,3.803114,-0.708519,-0.126597\C,1.095181,0.031241,-0.103453\C,-0.30
 9056,0.403259,-0.190573\O,-0.694179,1.532133,-0.065478\O,-1.074894,-0.
 658443,-0.422829\C,-2.493756,-0.409379,-0.50904\C,-3.108506,-0.284315,
 0.870844\H,-2.879795,-1.273566,-1.046295\H,-2.654192,0.491229,-1.10275
 7\H,-4.190453,-0.171781,0.778964\H,-2.902713,-1.178117,1.461495\H,-2.7

 Normal termination of Gaussian 16 at Mon Jun 23 00:51:18 2025.
