 Gaussian 16, Revision A.03,
 Gaussian 16:  ES64L-G16RevA.03 25-Dec-2016

 --------------------------
 # freq 6-311++g(d,p) m062x
 --------------------------

 -------------------
 Title Card Required
 -------------------
 Symbolic Z-matrix:
 Charge =  0 Multiplicity = 2

                         Standard orientation:
 ---------------------------------------------------------------------
 Center     Atomic      Atomic             Coordinates (Angstroms)
 Number     Number       Type             X           Y           Z
 ---------------------------------------------------------------------
      1          8           0        4.558362   -0.252731    0.323197
      2          1           0        4.597074    0.642184   -0.040746
      3          6           0        2.257538   -0.309587   -0.075339
      4          1           0        3.697583   -0.659875   -0.074975
      5          6           0        1.099792    0.028297   -0.104998
      6          6           0       -0.306347    0.403109   -0.189713
      7          8           0       -0.691815    1.531844   -0.063112
      8          8           0       -1.074006   -0.657353   -0.424096
      9          6           0       -2.492963   -0.407184   -0.509533
     10          6           0       -3.107558   -0.284357    0.870665
     11          1           0       -2.879544   -1.270195   -1.048304
     12          1           0       -2.653026    0.494580   -1.101572
     13          1           0       -4.189455   -0.170975    0.779165
     14          1           0       -2.902222   -1.179375    1.459629
     15          1           0       -2.713507    0.587917    1.392398
 ---------------------------------------------------------------------

 SCF Done:  E(UM062X) =  -420.174565134     A.U. after   22 cycles

 The electronic state is 2-A.
 Alpha  occ. eigenvalues --  -19.68907 -19.68595 -19.63871 -10.71335 -10.61062
 Alpha  occ. eigenvalues --  -10.60457 -10.57866 -10.54174  -1.26334  -1.18684
 Alpha  occ. eigenvalues --   -1.17058  -0.91191  -0.87693  -0.78536  -0.71016
 Alpha  occ. eigenvalues --   -0.67360  -0.64658  -0.59054  -0.57036  -0.56015
 Alpha  occ. eigenvalues --   -0.54159  -0.49879  -0.47225  -0.46105  -0.45872
 Alpha  occ. eigenvalues --   -0.42940  -0.42315  -0.40140  -0.39110  -0.38269
 Alpha  occ. eigenvalues --   -0.37091
 Alpha virt. eigenvalues --   -0.02231  -0.00403   0.00097   0.01647   0.02283
 Alpha virt. eigenvalues --    0.02689   0.03576   0.04914   0.05324   0.06169
 Alpha virt. eigenvalues --    0.06908   0.07755   0.08123   0.08661   0.10246

  Beta  occ. eigenvalues --  -19.68918 -19.67778 -19.63865 -10.71316 -10.61063
  Beta  occ. eigenvalues --  -10.59371 -10.57754 -10.54174  -1.26337  -1.17053
  Beta  occ. eigenvalues --   -1.15643  -0.90602  -0.86637  -0.77989  -0.70259
  Beta  occ. eigenvalues --   -0.64846  -0.63791  -0.59054  -0.57065  -0.54283
  Beta  occ. eigenvalues --   -0.51029  -0.49858  -0.47222  -0.45832  -0.43178
  Beta  occ. eigenvalues --   -0.42468  -0.39669  -0.39115  -0.36858  -0.36236
  Beta virt. eigenvalues --   -0.16418  -0.01286  -0.00208   0.00347   0.01666
  Beta virt. eigenvalues --    0.02293   0.02918   0.03755   0.05317   0.05746
  Beta virt. eigenvalues --    0.06607   0.06973   0.07776   0.08185   0.08689

 Mulliken charges and spin densities:
               1          2
     1  O   -0.320475   0.363610
     2  H    0.271948  -0.008970
     3  C   -0.617882   0.703046
     4  H    0.416524  -0.038480
     5  C    1.101558   0.065657
     6  C   -0.881965  -0.084263
     7  O   -0.207388   0.001078
     8  O    0.011770  -0.000095
     9  C   -0.281714  -0.001481
    10  C   -0.403192   0.000201
    11  H    0.198182  -0.000162
    12  H    0.193902   0.000090
    13  H    0.166420  -0.000030
    14  H    0.167731  -0.000012
    15  H    0.184579  -0.000189
 Sum of Mulliken charges =  -0.00000   1.00000

 Dipole moment (field-independent basis, Debye):
    X=             -1.3288    Y=             -0.3649    Z=             -1.0245  Tot=              1.7171
 Quadrupole moment (field-independent basis, Debye-Ang):
   XX=            -38.5180   YY=            -51.9491   ZZ=            -48.0647
   XY=              7.7541   XZ=             -3.5564   YZ=             -0.2924

  Exact polarizability: 144.068  -8.763  61.905   2.108   0.534  50.870
 Approx polarizability: 123.162 -13.332  80.241   3.435   1.722  57.851

 ******    1 imaginary frequencies (negative Signs) ******

                      1                      2                      3
                      A                      A                      A
 Frequencies --   -763.2075                25.0928                27.8666
 Red. masses --      1.0563                 5.9727                 5.1577
 Frc consts  --      0.3625                 0.0022                 0.0024
 IR Inten    --    187.3316                 5.0216                 3.3891

                      4                      5                      6
                      A                      A                      A
 Frequencies --     65.6461               104.0726               115.1773
 Red. masses --      1.8245                 1.9135                 4.1991
 Frc consts  --      0.0046                 0.0122                 0.0328
 IR Inten    --     27.2026                47.5267                 2.7310

                      7                      8                      9
                      A                      A                      A
 Frequencies --    140.3017               217.7377               240.2660
 Red. masses --      3.4669                 1.6985                 2.5223
 Frc consts  --      0.0402                 0.0474                 0.0858
 IR Inten    --      1.5835                20.5427                15.3153

                     10                     11                     12
                      A                      A                      A
 Frequencies --    278.0256               334.1739               421.8303
 Red. masses --      7.0130                 2.8781                 3.9294
 Frc consts  --      0.3194                 0.1894                 0.4120
 IR Inten    --     35.7771                 9.4696                 4.8974

                     13                     14                     15
                      A                      A                      A
 Frequencies --    504.6365               555.5017               597.4698
 Red. masses --      1.0847                 6.1918                 6.1951
 Frc consts  --      0.1628                 1.1257                 1.3030
 IR Inten    --    185.3174                12.1084                46.4784

                     16                     17                     18
                      A                      A                      A
 Frequencies --    773.1597               798.4723               894.1070
 Red. masses --     10.1103                 1.2130                 3.0880
 Frc consts  --      3.5608                 0.4556                 1.4545
 IR Inten    --     17.5204                 4.5079                 7.1600

                     19                     20                     21
                      A                      A                      A
 Frequencies --    930.6497              1076.1586              1127.5255
 Red. masses --      2.8990                 4.1792                 2.0852
 Frc consts  --      1.4793                 2.8517                 1.5619
 IR Inten    --      2.3742                24.3112                27.1781

                     22                     23                     24
                      A                      A                      A
 Frequencies --   1202.6914              1285.5834              1347.2544
 Red. masses --      1.7773                 4.1736                 1.2115
 Frc consts  --      1.5147                 4.0641                 1.2956
 IR Inten    --      5.9895               812.1265               108.7548

                     25                     26                     27
                      A                      A                      A
 Frequencies --   1374.4587              1401.3687              1430.8892
 Red. masses --      1.1280                 1.2744                 1.3789
 Frc consts  --      1.2555                 1.4745                 1.6634
 IR Inten    --     26.6179                35.3354                 9.8017

                     28                     29                     30
                      A                      A                      A
 Frequencies --   1492.7008              1501.5901              1514.0220
 Red. masses --      1.0412                 1.0673                 1.0784
 Frc consts  --      1.3669                 1.4179                 1.4565
 IR Inten    --     11.5637                 4.4588                19.4966

                     31                     32                     33
                      A                      A                      A
 Frequencies --   1838.4345              2182.6599              2351.3558
 Red. masses --     12.1277                 2.4239                 1.6903
 Frc consts  --     24.1503                 6.8036                 5.5061
 IR Inten    --    335.3227               547.4894               293.3923

                     34                     35                     36
                      A                      A                      A
 Frequencies --   3076.1098              3108.5219              3151.7141
 Red. masses --      1.0354                 1.0608                 1.1014
 Frc consts  --      5.7722                 6.0395                 6.4461
 IR Inten    --     10.2502                18.2597                15.3042

                     37                     38                     39
                      A                      A                      A
 Frequencies --   3155.4748              3176.2954              3857.3844
 Red. masses --      1.1049                 1.1074                 1.0668
 Frc consts  --      6.4816                 6.5826                 9.3524
 IR Inten    --      1.9393                14.6762               155.9561

 - Thermochemistry -
 -------------------
 Temperature   298.150 Kelvin.  Pressure   1.00000 Atm.
 Atom     1 has atomic number  8 and mass  15.99491

 Molecular mass:   115.03952 amu.
 Principal axes and moments of inertia in atomic units:
                           1         2         3
     Eigenvalues --   287.175612621.000122733.63349
           X            0.99993   0.00825  -0.00858
           Y           -0.00833   0.99992  -0.00914
           Z            0.00851   0.00921   0.99992
 This molecule is an asymmetric top.
 Rotational symmetry number  1.
 Rotational temperatures (Kelvin)      0.30161     0.03305     0.03168
 Rotational constants (GHZ):           6.28445     0.68857     0.66020
    1 imaginary frequencies ignored.
 Zero-point vibrational energy     285168.1 (Joules/Mol)
                                   68.15681 (Kcal/Mol)
 Warning -- explicit consideration of  14 degrees of freedom as
           vibrations may cause significant error
 Vibrational temperatures:     36.10    40.09    94.45   149.74   165.71
          (Kelvin)            201.86   313.28   345.69   400.02   480.80
                              606.92   726.06   799.24   859.63  1112.40
                             1148.82  1286.42  1339.00  1548.35  1622.26
                             1730.40  1849.67  1938.40  1977.54  2016.26
                             2058.73  2147.66  2160.45  2178.34  2645.10
                             3140.36  3383.08  4425.84  4472.47  4534.61
                             4540.02  4569.98  5549.92

 Zero-point correction=                           0.108615 (Hartree/Particle)
 Thermal correction to Energy=                    0.119226
 Thermal correction to Enthalpy=                  0.120170
 Thermal correction to Gibbs Free Energy=         0.069560
 Sum of electronic and zero-point Energies=           -420.065950
 Sum of electronic and thermal Energies=              -420.055339
 Sum of electronic and thermal Enthalpies=            -420.054395
 Sum of electronic and thermal Free Energies=         -420.105005

                     E (Thermal)             CV                S
                      KCal/Mol        Cal/Mol-Kelvin    Cal/Mol-Kelvin
 Total                   74.815             33.369            106.517
 Electronic               0.000              0.000              1.377
 Translational            0.889              2.981             40.136
 Rotational               0.889              2.981             29.110
 Vibrational             73.038             27.407             35.893
 Vibration     1          0.593              1.985              6.184
 Vibration     2          0.593              1.984              5.976
 Vibration     3          0.597              1.971              4.280
 Vibration     4          0.605              1.946              3.377
 Vibration     5          0.608              1.937              3.180
 Vibration     6          0.615              1.913              2.800
 Vibration     7          0.646              1.814              1.978
 Vibration     8          0.657              1.779              1.801
 Vibration     9          0.679              1.714              1.546
 Vibration    10          0.716              1.607              1.240
 Vibration    11          0.784              1.423              0.886
 Vibration    12          0.860              1.240              0.647
 Vibration    13          0.911              1.128              0.533
 Vibration    14          0.955              1.037              0.454

 1\1\GINC-AJ\Freq\UM062X\6-311++G(d,p)\C5H7O3(2)\AAYUSH\16-Aug-2025\0\\
 # freq 6-311++g(d,p) m062x\\Title Card Required\\0,2\O,4.497708,-0.267
 308,0.33449\H,4.5366,0.627746,-0.02909\C,2.196839,-0.323465,-0.063881\
 H,3.636802,-0.674089,-0.063778\C,1.039169,0.014702,-0.093307\C,-0.3668
 89,0.389876,-0.177754\O,-0.752084,1.518649,-0.050659\O,-1.134815,-0.67
 0311,-0.412508\C,-2.55372,-0.419776,-0.497726\C,-3.168174,-0.29737,0.8
 82572\H,-2.940547,-1.282476,-1.036819\H,-2.713621,0.482268,-1.089383\H
 ,-4.250052,-0.183698,0.791207\H,-2.962999,-1.192677,1.471153\H,-2.7738

 Normal termination of Gaussian 16 at Sat Aug 16 14:15:13 2025.
