 Gaussian 16, Revision A.03,
 Gaussian 16:  ES64L-G16RevA.03 25-Dec-2016

 --------------------------
 # freq 6-311++g(d,p) m062x
 --------------------------

 -------------------
 Title Card Required
 -------------------
 Symbolic Z-matrix:
 Charge =  0 Multiplicity = 2

                         Standard orientation:
 ---------------------------------------------------------------------
 Center     Atomic      Atomic             Coordinates (Angstroms)
 Number     Number       Type             X           Y           Z
 ---------------------------------------------------------------------
      1          8           0        4.557898   -0.255753    0.320440
      2          1           0        4.603325    0.645509   -0.033106
      3          6           0        2.262141   -0.311588   -0.076837
      4          1           0        3.601413   -0.630590   -0.049849
      5          6           0        1.103483    0.025854   -0.105961
      6          6           0       -0.304121    0.403098   -0.189206
      7          8           0       -0.690261    1.531757   -0.062338
      8          8           0       -1.073336   -0.656846   -0.424582
      9          6           0       -2.492220   -0.405964   -0.509687
     10          6           0       -3.106796   -0.283838    0.870632
     11          1           0       -2.879286   -1.268460   -1.048992
     12          1           0       -2.652093    0.496269   -1.101065
     13          1           0       -4.188669   -0.169924    0.779337
     14          1           0       -2.901762   -1.179341    1.458978
     15          1           0       -2.712257    0.587901    1.392892
 ---------------------------------------------------------------------

 SCF Done:  E(UM062X) =  -420.174622305     A.U. after   21 cycles

 The electronic state is 2-A.
 Alpha  occ. eigenvalues --  -19.69728 -19.68780 -19.63725 -10.71204 -10.60974
 Alpha  occ. eigenvalues --  -10.59748 -10.57635 -10.54102  -1.26180  -1.18824
 Alpha  occ. eigenvalues --   -1.16904  -0.90938  -0.87474  -0.78405  -0.71059
 Alpha  occ. eigenvalues --   -0.67506  -0.64509  -0.58920  -0.57053  -0.56764
 Alpha  occ. eigenvalues --   -0.54107  -0.49771  -0.47134  -0.46422  -0.45781
 Alpha  occ. eigenvalues --   -0.43146  -0.42305  -0.39938  -0.38987  -0.37936
 Alpha  occ. eigenvalues --   -0.36836
 Alpha virt. eigenvalues --   -0.02053  -0.00473   0.00064   0.01695   0.02308
 Alpha virt. eigenvalues --    0.02698   0.03687   0.05019   0.05360   0.06253
 Alpha virt. eigenvalues --    0.06941   0.07805   0.08199   0.08710   0.10226

  Beta  occ. eigenvalues --  -19.68788 -19.68725 -19.63719 -10.71188 -10.60974
  Beta  occ. eigenvalues --  -10.58822 -10.57533 -10.54102  -1.26181  -1.16897
  Beta  occ. eigenvalues --   -1.14998  -0.90462  -0.86556  -0.77926  -0.70223
  Beta  occ. eigenvalues --   -0.64728  -0.63222  -0.58919  -0.56918  -0.54226
  Beta  occ. eigenvalues --   -0.51596  -0.49748  -0.47110  -0.45736  -0.43459
  Beta  occ. eigenvalues --   -0.42395  -0.39551  -0.38986  -0.36756  -0.36134
  Beta virt. eigenvalues --   -0.16720  -0.01328  -0.00222   0.00275   0.01710
  Beta virt. eigenvalues --    0.02327   0.02879   0.03849   0.05356   0.05683
  Beta virt. eigenvalues --    0.06563   0.07019   0.07826   0.08270   0.08757

 Mulliken charges and spin densities:
               1          2
     1  O   -0.296688   0.484743
     2  H    0.269981  -0.011601
     3  C   -0.641738   0.577885
     4  H    0.433147  -0.038562
     5  C    1.112880   0.056579
     6  C   -0.904927  -0.069116
     7  O   -0.208603   0.001397
     8  O    0.011090   0.000054
     9  C   -0.281517  -0.001364
    10  C   -0.403148   0.000226
    11  H    0.197787  -0.000138
    12  H    0.193755   0.000097
    13  H    0.165962  -0.000020
    14  H    0.167538  -0.000008
    15  H    0.184481  -0.000172
 Sum of Mulliken charges =  -0.00000   1.00000

 Dipole moment (field-independent basis, Debye):
    X=             -1.0595    Y=             -0.3084    Z=             -0.9166  Tot=              1.4345
 Quadrupole moment (field-independent basis, Debye-Ang):
   XX=            -36.7499   YY=            -52.0927   ZZ=            -48.0909
   XY=              7.9853   XZ=             -3.0498   YZ=             -0.3622

  Exact polarizability: 139.642  -7.594  61.238   2.665   0.515  50.628
 Approx polarizability: 123.836 -13.022  79.869   3.842   1.555  57.748

 ******    1 imaginary frequencies (negative Signs) ******

                      1                      2                      3
                      A                      A                      A
 Frequencies --  -1211.8523                34.3162                54.9220
 Red. masses --      1.0306                 3.9221                 6.7711
 Frc consts  --      0.8917                 0.0027                 0.0120
 IR Inten    --    473.8698                 9.9785                 1.4677

                      4                      5                      6
                      A                      A                      A
 Frequencies --     83.2116               116.7646               149.6562
 Red. masses --      2.9183                 3.3679                 3.5213
 Frc consts  --      0.0119                 0.0271                 0.0465
 IR Inten    --      6.9959                 1.9094                18.6986

                      7                      8                      9
                      A                      A                      A
 Frequencies --    173.1077               223.8695               261.7030
 Red. masses --      1.5459                 1.3056                 4.4009
 Frc consts  --      0.0273                 0.0386                 0.1776
 IR Inten    --     69.0901                 3.7984                12.2985

                     10                     11                     12
                      A                      A                      A
 Frequencies --    333.4799               343.1024               424.7023
 Red. masses --      3.0228                 6.3231                 3.8205
 Frc consts  --      0.1981                 0.4386                 0.4060
 IR Inten    --     11.9410                 5.0208                 2.8839

                     13                     14                     15
                      A                      A                      A
 Frequencies --    561.9978               600.4278               607.3157
 Red. masses --      5.7833                 1.2128                 4.0593
 Frc consts  --      1.0762                 0.2576                 0.8821
 IR Inten    --     13.5203               200.4686                 9.4828

                     16                     17                     18
                      A                      A                      A
 Frequencies --    776.5105               798.2503               893.7372
 Red. masses --      9.5771                 1.2232                 3.1219
 Frc consts  --      3.4024                 0.4592                 1.4692
 IR Inten    --     19.6777                 3.5088                 8.0889

                     19                     20                     21
                      A                      A                      A
 Frequencies --    927.2613              1074.4277              1127.1415
 Red. masses --      2.7424                 3.9421                 2.0660
 Frc consts  --      1.3893                 2.6812                 1.5465
 IR Inten    --      1.9133                27.3775                23.6767

                     22                     23                     24
                      A                      A                      A
 Frequencies --   1176.1156              1203.5248              1285.7511
 Red. masses --      1.2803                 1.7625                 4.1987
 Frc consts  --      1.0434                 1.5041                 4.0896
 IR Inten    --     51.3295                 7.8124               787.0142

                     25                     26                     27
                      A                      A                      A
 Frequencies --   1346.9034              1401.1273              1430.6574
 Red. masses --      1.2093                 1.2731                 1.3776
 Frc consts  --      1.2925                 1.4726                 1.6613
 IR Inten    --    104.3895                33.8170                 9.6212

                     28                     29                     30
                      A                      A                      A
 Frequencies --   1492.6507              1501.5345              1513.9417
 Red. masses --      1.0412                 1.0677                 1.0778
 Frc consts  --      1.3668                 1.4183                 1.4555
 IR Inten    --     11.7438                 4.3559                18.3239

                     31                     32                     33
                      A                      A                      A
 Frequencies --   1634.0517              1837.6770              2277.1369
 Red. masses --      1.0858                12.0709                10.1463
 Frc consts  --      1.7081                24.0175                30.9981
 IR Inten    --    440.8349               358.1407                29.0734

                     34                     35                     36
                      A                      A                      A
 Frequencies --   3076.0064              3108.3948              3151.5340
 Red. masses --      1.0354                 1.0608                 1.1014
 Frc consts  --      5.7718                 6.0388                 6.4455
 IR Inten    --     10.3664                18.4562                15.3754

                     37                     38                     39
                      A                      A                      A
 Frequencies --   3155.3405              3176.1061              3829.9641
 Red. masses --      1.1049                 1.1074                 1.0666
 Frc consts  --      6.4811                 6.5818                 9.2181
 IR Inten    --      2.0289                14.7912               148.5113

 - Thermochemistry -
 -------------------
 Temperature   298.150 Kelvin.  Pressure   1.00000 Atm.
 Atom     1 has atomic number  8 and mass  15.99491

 Molecular mass:   115.03952 amu.
 Principal axes and moments of inertia in atomic units:
                           1         2         3
     Eigenvalues --   286.986112618.861432731.46108
           X            0.99993   0.00852  -0.00840
           Y           -0.00860   0.99992  -0.00959
           Z            0.00832   0.00966   0.99992
 This molecule is an asymmetric top.
 Rotational symmetry number  1.
 Rotational temperatures (Kelvin)      0.30181     0.03307     0.03171
 Rotational constants (GHZ):           6.28860     0.68913     0.66072
    1 imaginary frequencies ignored.
 Zero-point vibrational energy     282105.3 (Joules/Mol)
                                   67.42479 (Kcal/Mol)
 Warning -- explicit consideration of  14 degrees of freedom as
           vibrations may cause significant error
 Vibrational temperatures:     49.37    79.02   119.72   168.00   215.32
          (Kelvin)            249.06   322.10   376.53   479.80   493.65
                              611.05   808.59   863.88   873.79  1117.23
                             1148.50  1285.89  1334.12  1545.86  1621.71
                             1692.17  1731.60  1849.91  1937.89  2015.91
                             2058.40  2147.59  2160.37  2178.22  2351.04
                             2644.01  3276.29  4425.69  4472.29  4534.35
                             4539.83  4569.71  5510.46

 Zero-point correction=                           0.107448 (Hartree/Particle)
 Thermal correction to Energy=                    0.117626
 Thermal correction to Enthalpy=                  0.118570
 Thermal correction to Gibbs Free Energy=         0.070008
 Sum of electronic and zero-point Energies=           -420.067174
 Sum of electronic and thermal Energies=              -420.056996
 Sum of electronic and thermal Enthalpies=            -420.056052
 Sum of electronic and thermal Free Energies=         -420.104614

                     E (Thermal)             CV                S
                      KCal/Mol        Cal/Mol-Kelvin    Cal/Mol-Kelvin
 Total                   73.812             32.996            102.208
 Electronic               0.000              0.000              1.377
 Translational            0.889              2.981             40.136
 Rotational               0.889              2.981             29.108
 Vibrational             72.034             27.034             31.586
 Vibration     1          0.594              1.983              5.563
 Vibration     2          0.596              1.976              4.632
 Vibration     3          0.600              1.961              3.814
 Vibration     4          0.608              1.935              3.153
 Vibration     5          0.618              1.903              2.677
 Vibration     6          0.627              1.876              2.401
 Vibration     7          0.649              1.805              1.928
 Vibration     8          0.669              1.743              1.650
 Vibration     9          0.715              1.609              1.243
 Vibration    10          0.722              1.589              1.198
 Vibration    11          0.787              1.417              0.876
 Vibration    12          0.918              1.114              0.520
 Vibration    13          0.959              1.031              0.449
 Vibration    14          0.966              1.016              0.437

 1\1\GINC-AJ\Freq\UM062X\6-311++G(d,p)\C5H7O3(2)\AAYUSH\23-Jun-2025\0\\
 # freq 6-311++g(d,p) m062x\\Title Card Required\\0,2\O,4.557898,-0.255
 753,0.32044\H,4.603325,0.645509,-0.033106\C,2.262141,-0.311588,-0.0768
 37\H,3.601413,-0.63059,-0.049849\C,1.103483,0.025854,-0.105961\C,-0.30
 4121,0.403098,-0.189206\O,-0.690261,1.531757,-0.062338\O,-1.073336,-0.
 656846,-0.424582\C,-2.49222,-0.405964,-0.509687\C,-3.106796,-0.283838,
 0.870632\H,-2.879286,-1.26846,-1.048992\H,-2.652093,0.496269,-1.101065
 \H,-4.188669,-0.169924,0.779337\H,-2.901762,-1.179341,1.458978\H,-2.71

 Normal termination of Gaussian 16 at Mon Jun 23 00:20:40 2025.
