 Gaussian 16, Revision A.03,
 Gaussian 16:  ES64L-G16RevA.03 25-Dec-2016

 --------------------------
 # ccsd(t)/6-311++g(d,p) sp
 --------------------------

 -------------------
 Title Card Required
 -------------------
 Symbolic Z-matrix:
 Charge =  0 Multiplicity = 2

                         Standard orientation:
 ---------------------------------------------------------------------
 Center     Atomic      Atomic             Coordinates (Angstroms)
 Number     Number       Type             X           Y           Z
 ---------------------------------------------------------------------
      1          8           0        4.558362   -0.252731    0.323197
      2          1           0        4.597074    0.642184   -0.040746
      3          6           0        2.257538   -0.309587   -0.075339
      4          1           0        3.697583   -0.659875   -0.074975
      5          6           0        1.099792    0.028297   -0.104998
      6          6           0       -0.306347    0.403109   -0.189713
      7          8           0       -0.691815    1.531844   -0.063112
      8          8           0       -1.074006   -0.657353   -0.424096
      9          6           0       -2.492963   -0.407184   -0.509533
     10          6           0       -3.107558   -0.284357    0.870665
     11          1           0       -2.879544   -1.270195   -1.048304
     12          1           0       -2.653026    0.494580   -1.101572
     13          1           0       -4.189455   -0.170975    0.779165
     14          1           0       -2.902222   -1.179375    1.459629
     15          1           0       -2.713507    0.587917    1.392398
 ---------------------------------------------------------------------

 SCF Done:  E(UHF) =  -417.936365428     A.U. after   34 cycles
 E2 =    -0.1267014407D+01 EUMP2 =    -0.41920337983462D+03
 CCSD(T)= -0.41932312113D+03

 The electronic state is 2-A.
 Alpha  occ. eigenvalues --  -20.62081 -20.61879 -20.56725 -11.42535 -11.31642
 Alpha  occ. eigenvalues --  -11.30326 -11.26194 -11.23077  -1.48956  -1.40600
 Alpha  occ. eigenvalues --   -1.38518  -1.09311  -1.05290  -0.93579  -0.84619
 Alpha  occ. eigenvalues --   -0.79959  -0.76618  -0.70146  -0.67536  -0.66950
 Alpha  occ. eigenvalues --   -0.63961  -0.58963  -0.57192  -0.55780  -0.55051
 Alpha  occ. eigenvalues --   -0.54551  -0.51144  -0.48822  -0.47224  -0.45875
 Alpha  occ. eigenvalues --   -0.45724
 Alpha virt. eigenvalues --    0.03946   0.04763   0.05672   0.06378   0.07320
 Alpha virt. eigenvalues --    0.08047   0.08380   0.09103   0.11155   0.12222
 Alpha virt. eigenvalues --    0.13040   0.13337   0.14386   0.15605   0.15976

  Beta  occ. eigenvalues --  -20.62099 -20.60008 -20.57339 -11.42062 -11.30333
  Beta  occ. eigenvalues --  -11.27976 -11.26410 -11.23079  -1.49260  -1.39506
  Beta  occ. eigenvalues --   -1.34333  -1.08765  -1.03948  -0.91957  -0.83371
  Beta  occ. eigenvalues --   -0.76777  -0.72625  -0.70742  -0.67568  -0.64269
  Beta  occ. eigenvalues --   -0.59434  -0.58620  -0.56339  -0.54817  -0.52545
  Beta  occ. eigenvalues --   -0.51308  -0.49638  -0.48145  -0.44188  -0.43736
  Beta virt. eigenvalues --   -0.00686   0.04023   0.05642   0.05902   0.06386
  Beta virt. eigenvalues --    0.07381   0.08144   0.09086   0.09905   0.11601
  Beta virt. eigenvalues --    0.12553   0.13277   0.13617   0.14800   0.15493

 Mulliken charges and spin densities:
               1          2
     1  O   -0.353838   0.344260
     2  H    0.270095  -0.016843
     3  C   -0.577481   1.848762
     4  H    0.378173  -0.128593
     5  C    1.324484  -1.072784
     6  C   -0.957136   0.148471
     7  O   -0.273089  -0.126994
     8  O   -0.086483   0.003313
     9  C   -0.166081   0.002375
    10  C   -0.359973  -0.001219
    11  H    0.169059  -0.000245
    12  H    0.176360  -0.000106
    13  H    0.136905  -0.000122
    14  H    0.145677  -0.000117
    15  H    0.173326  -0.000158
 Sum of Mulliken charges =  -0.00000   1.00000

 Dipole moment (field-independent basis, Debye):
    X=             -1.6111    Y=             -0.6225    Z=             -1.2210  Tot=              2.1152
 Quadrupole moment (field-independent basis, Debye-Ang):
   XX=            -42.2445   YY=            -52.2209   ZZ=            -47.8468
   XY=              7.7119   XZ=             -4.0283   YZ=             -0.2824

 154\PMP3-0=-419.2490857\MP4SDQ=-419.2571416\CCSD=-419.2677541\CCSD(T)=
 Normal termination of Gaussian 16 at Mon Aug 18 19:01:36 2025.
