 Gaussian 16, Revision A.03,
 Gaussian 16:  ES64L-G16RevA.03 25-Dec-2016

 ----------------------------------------------------------------------
 # irc=(calcfc,maxpoints=10,maxcycle=900,stepsize=5) 6-311++g(d,p) m062
 x
 ----------------------------------------------------------------------

 -------------------
 Title Card Required
 -------------------
 Symbolic Z-matrix:
 Charge =  0 Multiplicity = 2

 SCF Done:  E(UM062X) =  -420.174413084     A.U. after   22 cycles
 SCF Done:  E(UM062X) =  -420.174460829     A.U. after   19 cycles
 SCF Done:  E(UM062X) =  -420.174622311     A.U. after   19 cycles
 SCF Done:  E(UM062X) =  -420.174933221     A.U. after   18 cycles
 SCF Done:  E(UM062X) =  -420.175433175     A.U. after   18 cycles
 SCF Done:  E(UM062X) =  -420.176156021     A.U. after   19 cycles
 SCF Done:  E(UM062X) =  -420.177120584     A.U. after   19 cycles
 SCF Done:  E(UM062X) =  -420.178327730     A.U. after   19 cycles
 SCF Done:  E(UM062X) =  -420.179747591     A.U. after   18 cycles
 SCF Done:  E(UM062X) =  -420.181320569     A.U. after   18 cycles
 SCF Done:  E(UM062X) =  -420.174453595     A.U. after   23 cycles
 SCF Done:  E(UM062X) =  -420.174565131     A.U. after   19 cycles
 SCF Done:  E(UM062X) =  -420.174735762     A.U. after   18 cycles
 SCF Done:  E(UM062X) =  -420.174953839     A.U. after   19 cycles
 SCF Done:  E(UM062X) =  -420.175211340     A.U. after   18 cycles
 SCF Done:  E(UM062X) =  -420.175500786     A.U. after   17 cycles
 SCF Done:  E(UM062X) =  -420.175818051     A.U. after   18 cycles
 SCF Done:  E(UM062X) =  -420.176159039     A.U. after   19 cycles
 SCF Done:  E(UM062X) =  -420.176518483     A.U. after   19 cycles
 SCF Done:  E(UM062X) =  -420.176889651     A.U. after   20 cycles

                          Input orientation:
 ---------------------------------------------------------------------
 Center     Atomic      Atomic             Coordinates (Angstroms)
 Number     Number       Type             X           Y           Z
 ---------------------------------------------------------------------
      1          8           0        4.502441   -0.265422    0.339923
      2          1           0        4.526714    0.614400   -0.054005
      3          6           0        2.189480   -0.321764   -0.061440
      4          1           0        3.807249   -0.754124   -0.151509
      5          6           0        1.033405    0.017390   -0.092282
      6          6           0       -0.369446    0.390357   -0.178620
      7          8           0       -0.753255    1.519317   -0.050615
      8          8           0       -1.135951   -0.670481   -0.412822
      9          6           0       -2.554394   -0.419997   -0.497848
     10          6           0       -3.168315   -0.297373    0.882612
     11          1           0       -2.941619   -1.282597   -1.036817
     12          1           0       -2.714333    0.482095   -1.089463
     13          1           0       -4.250210   -0.183650    0.791562
     14          1           0       -2.963016   -1.192654    1.471198
     15          1           0       -2.773797    0.574601    1.404482
 ---------------------------------------------------------------------

 Alpha  occ. eigenvalues --  -19.68886 -19.67496 -19.63809 -10.71257 -10.61040
 Alpha  occ. eigenvalues --  -10.60890 -10.57760 -10.54155  -1.26322  -1.18533
 Alpha  occ. eigenvalues --   -1.17039  -0.91252  -0.87722  -0.78518  -0.70798
 Alpha  occ. eigenvalues --   -0.66650  -0.64678  -0.59033  -0.57006  -0.55029
 Alpha  occ. eigenvalues --   -0.53913  -0.49872  -0.47206  -0.46828  -0.45844
 Alpha  occ. eigenvalues --   -0.42612  -0.41930  -0.40162  -0.39086  -0.38389
 Alpha  occ. eigenvalues --   -0.37086
 Alpha virt. eigenvalues --   -0.02261  -0.00392   0.00146   0.01645   0.02287
 Alpha virt. eigenvalues --    0.02686   0.03420   0.04921   0.05335   0.06139
 Alpha virt. eigenvalues --    0.06950   0.07761   0.08040   0.08658   0.10266

  Beta  occ. eigenvalues --  -19.68898 -19.66880 -19.63810 -10.71233 -10.61041
  Beta  occ. eigenvalues --  -10.59615 -10.57641 -10.54156  -1.26333  -1.17051
  Beta  occ. eigenvalues --   -1.16359  -0.90594  -0.86530  -0.77906  -0.70130
  Beta  occ. eigenvalues --   -0.64860  -0.64325  -0.59046  -0.57063  -0.54233
  Beta  occ. eigenvalues --   -0.50643  -0.49850  -0.47224  -0.45829  -0.42973
  Beta  occ. eigenvalues --   -0.42440  -0.39648  -0.39106  -0.36756  -0.36149
  Beta virt. eigenvalues --   -0.14930  -0.01023  -0.00164   0.00391   0.01672
  Beta virt. eigenvalues --    0.02294   0.02994   0.03540   0.05325   0.05858
  Beta virt. eigenvalues --    0.06833   0.06996   0.07772   0.08126   0.08666

 Mulliken charges and spin densities:
               1          2
     1  O   -0.326351   0.236739
     2  H    0.277184  -0.006893
     3  C   -0.585843   0.836431
     4  H    0.366557  -0.031978
     5  C    1.094260   0.074237
     6  C   -0.854367  -0.104249
     7  O   -0.208197  -0.001963
     8  O    0.011630  -0.000567
     9  C   -0.282321  -0.001536
    10  C   -0.403046   0.000180
    11  H    0.197903  -0.000187
    12  H    0.193712   0.000047
    13  H    0.166526  -0.000034
    14  H    0.167616  -0.000018
    15  H    0.184737  -0.000209
 Sum of Mulliken charges =  -0.00000   1.00000

 Dipole moment (field-independent basis, Debye):
    X=             -1.3633    Y=             -0.5667    Z=             -1.2601  Tot=              1.9410
 Quadrupole moment (field-independent basis, Debye-Ang):
   XX=            -39.1735   YY=            -51.6843   ZZ=            -48.0151
   XY=              6.9274   XZ=             -4.5771   YZ=             -0.1050

  Exact polarizability:   0.000   0.000   0.000   0.000   0.000   0.000
 Approx polarizability: 117.641 -12.808  80.494   2.618   2.070  58.175

 Normal termination of Gaussian 16 at Fri Jun 13 16:39:35 2025.
