 Gaussian 16, Revision A.03,
 Gaussian 16:  ES64L-G16RevA.03 25-Dec-2016

 -------------------
 # freq 6-31+g m062x
 -------------------

 -------------------
 Title Card Required
 -------------------
 Symbolic Z-matrix:
 Charge =  0 Multiplicity = 2

                         Standard orientation:
 ---------------------------------------------------------------------
 Center     Atomic      Atomic             Coordinates (Angstroms)
 Number     Number       Type             X           Y           Z
 ---------------------------------------------------------------------
      1          8           0        4.557919   -0.254382    0.321609
      2          1           0        4.600314    0.643902   -0.036507
      3          6           0        2.259857   -0.310603   -0.076174
      4          1           0        3.650548   -0.644076   -0.060656
      5          6           0        1.101671    0.027048   -0.105520
      6          6           0       -0.305220    0.403100   -0.189433
      7          8           0       -0.691011    1.531787   -0.062615
      8          8           0       -1.073671   -0.657062   -0.424395
      9          6           0       -2.492601   -0.406513   -0.509637
     10          6           0       -3.107179   -0.284154    0.870635
     11          1           0       -2.879428   -1.269208   -1.048763
     12          1           0       -2.652557    0.495546   -1.101259
     13          1           0       -4.189063   -0.170497    0.779250
     14          1           0       -2.902002   -1.179481    1.459193
     15          1           0       -2.712874    0.587793    1.392720
 ---------------------------------------------------------------------

 SCF Done:  E(UM062X) =  -419.918524479     A.U. after   22 cycles

 The electronic state is 2-A.
 Alpha  occ. eigenvalues --  -19.72111 -19.71175 -19.66863 -10.73548 -10.61993
 Alpha  occ. eigenvalues --  -10.61679 -10.59343 -10.54946  -1.28575  -1.20777
 Alpha  occ. eigenvalues --   -1.19201  -0.91773  -0.88328  -0.78995  -0.71702
 Alpha  occ. eigenvalues --   -0.68475  -0.64862  -0.58943  -0.57293  -0.56290
 Alpha  occ. eigenvalues --   -0.54519  -0.49998  -0.47381  -0.46586  -0.45833
 Alpha  occ. eigenvalues --   -0.43256  -0.42291  -0.40003  -0.38831  -0.38311
 Alpha  occ. eigenvalues --   -0.37224
 Alpha virt. eigenvalues --   -0.02269   0.01372   0.02097   0.03350   0.03884
 Alpha virt. eigenvalues --    0.04640   0.04882   0.06464   0.07345   0.08324
 Alpha virt. eigenvalues --    0.08800   0.09018   0.09212   0.10605   0.12368

  Beta  occ. eigenvalues --  -19.71184 -19.71095 -19.66863 -10.73529 -10.61994
  Beta  occ. eigenvalues --  -10.60716 -10.59261 -10.54947  -1.28577  -1.19207
  Beta  occ. eigenvalues --   -1.17344  -0.91233  -0.87432  -0.78575  -0.70967
  Beta  occ. eigenvalues --   -0.65280  -0.64555  -0.58958  -0.57318  -0.54626
  Beta  occ. eigenvalues --   -0.50678  -0.49982  -0.47362  -0.45782  -0.43538
  Beta  occ. eigenvalues --   -0.42433  -0.39547  -0.38832  -0.37082  -0.36510
  Beta virt. eigenvalues --   -0.17147  -0.01486   0.01736   0.02204   0.03381
  Beta virt. eigenvalues --    0.04500   0.04708   0.04947   0.06572   0.07587
  Beta virt. eigenvalues --    0.08364   0.08837   0.09048   0.09412   0.10833

 Mulliken charges and spin densities:
               1          2
     1  O   -0.535151   0.467575
     2  H    0.427696  -0.016387
     3  C    1.461948   0.215532
     4  H    0.500941  -0.039412
     5  C   -0.533635   0.311680
     6  C   -1.075069   0.063033
     7  O   -0.349836  -0.001111
     8  O   -0.206601  -0.000806
     9  C   -0.253459   0.000517
    10  C   -0.560168  -0.000456
    11  H    0.222200  -0.000037
    12  H    0.233343  -0.000057
    13  H    0.209561  -0.000083
    14  H    0.221719  -0.000003
    15  H    0.236511   0.000016
 Sum of Mulliken charges =  -0.00000   1.00000

 Dipole moment (field-independent basis, Debye):
    X=             -1.1559    Y=             -0.0908    Z=             -1.1750  Tot=              1.6507
 Quadrupole moment (field-independent basis, Debye-Ang):
   XX=            -37.8405   YY=            -53.3231   ZZ=            -48.4839
   XY=              8.9096   XZ=             -4.2880   YZ=             -0.3548

  Exact polarizability: 134.840  -7.372  59.335   3.130   0.507  46.396
 Approx polarizability: 117.515 -13.702  75.165   4.216   2.051  47.930

 ******    5 imaginary frequencies (negative Signs) ******

                      1                      2                      3
                      A                      A                      A
 Frequencies --  -1014.0075              -482.0555              -151.5104
 Red. masses --      1.0291                 1.0497                 3.1354
 Frc consts  --      0.6235                 0.1437                 0.0424
 IR Inten    --    282.8164               118.5137                39.3911

                      4                      5                      6
                      A                      A                      A
 Frequencies --    -69.7539               -22.2057                64.1975
 Red. masses --      6.5469                 2.9902                 4.3177
 Frc consts  --      0.0188                 0.0009                 0.0105
 IR Inten    --      3.3966                 0.5405                14.3701

                      7                      8                      9
                      A                      A                      A
 Frequencies --    103.5522               183.6949               245.3167
 Red. masses --      4.5418                 1.2737                 3.8505
 Frc consts  --      0.0287                 0.0253                 0.1365
 IR Inten    --      4.9580                 3.5350                38.0794

                     10                     11                     12
                      A                      A                      A
 Frequencies --    312.6010               334.5197               421.1936
 Red. masses --      2.8412                 5.1722                 3.4913
 Frc consts  --      0.1636                 0.3410                 0.3649
 IR Inten    --      5.0305                12.1041                15.8224

                     13                     14                     15
                      A                      A                      A
 Frequencies --    471.9509               586.6737               627.3275
 Red. masses --      1.9152                 4.8338                 8.1058
 Frc consts  --      0.2513                 0.9802                 1.8795
 IR Inten    --    162.3716                11.2339                50.0663

                     16                     17                     18
                      A                      A                      A
 Frequencies --    800.9134               815.8428               898.3818
 Red. masses --      5.9544                 1.4048                 3.3356
 Frc consts  --      2.2504                 0.5509                 1.5861
 IR Inten    --     14.2204                 5.3668                10.9486

                     19                     20                     21
                      A                      A                      A
 Frequencies --    945.7814              1111.2414              1156.8265
 Red. masses --      2.5935                 4.1503                 2.0660
 Frc consts  --      1.3668                 3.0196                 1.6290
 IR Inten    --      2.8456                 9.8670                20.4128

                     22                     23                     24
                      A                      A                      A
 Frequencies --   1224.6334              1236.0046              1325.9625
 Red. masses --      1.5782                 1.3149                 2.1488
 Frc consts  --      1.3945                 1.1835                 2.2259
 IR Inten    --     18.4613                48.7723               478.3601

                     25                     26                     27
                      A                      A                      A
 Frequencies --   1370.4506              1442.7954              1456.1374
 Red. masses --      1.6414                 1.3652                 1.2643
 Frc consts  --      1.8164                 1.6744                 1.5794
 IR Inten    --    332.3461                46.8856                15.9440

                     28                     29                     30
                      A                      A                      A
 Frequencies --   1528.1192              1535.9070              1544.8209
 Red. masses --      1.0422                 1.0762                 1.0672
 Frc consts  --      1.4339                 1.4958                 1.5005
 IR Inten    --     14.9370                 7.8637                22.7514

                     31                     32                     33
                      A                      A                      A
 Frequencies --   1905.9790              2025.5023              2356.3459
 Red. masses --     12.3584                 1.1392                 7.0230
 Frc consts  --     26.4514                 2.7538                22.9748
 IR Inten    --    307.9006               812.3320                13.1033

                     34                     35                     36
                      A                      A                      A
 Frequencies --   3108.1719              3138.2677              3188.2807
 Red. masses --      1.0351                 1.0602                 1.1007
 Frc consts  --      5.8917                 6.1520                 6.5925
 IR Inten    --     13.3406                20.1819                12.8416

                     37                     38                     39
                      A                      A                      A
 Frequencies --   3191.2492              3212.2165              3859.0039
 Red. masses --      1.1022                 1.1053                 1.0652
 Frc consts  --      6.6134                 6.7195                 9.3463
 IR Inten    --      7.6386                17.4095               106.8447

 - Thermochemistry -
 -------------------
 Temperature   298.150 Kelvin.  Pressure   1.00000 Atm.
 Atom     1 has atomic number  8 and mass  15.99491

 Molecular mass:   115.03952 amu.
 Principal axes and moments of inertia in atomic units:
                           1         2         3
     Eigenvalues --   287.066512619.844222732.45935
           X            0.99993   0.00839  -0.00848
           Y           -0.00847   0.99992  -0.00941
           Z            0.00840   0.00948   0.99992
 This molecule is an asymmetric top.
 Rotational symmetry number  1.
 Rotational temperatures (Kelvin)      0.30172     0.03306     0.03170
 Rotational constants (GHZ):           6.28684     0.68887     0.66048
    5 imaginary frequencies ignored.
 Zero-point vibrational energy     285488.0 (Joules/Mol)
                                   68.23326 (Kcal/Mol)
 Warning -- explicit consideration of   9 degrees of freedom as
           vibrations may cause significant error
 Vibrational temperatures:     92.37   148.99   264.30   352.96   449.76
          (Kelvin)            481.30   606.00   679.03   844.09   902.58
                             1152.34  1173.82  1292.57  1360.77  1598.83
                             1664.42  1761.97  1778.33  1907.76  1971.77
                             2075.86  2095.06  2198.62  2209.83  2222.65
                             2742.28  2914.25  3390.26  4471.97  4515.27
                             4587.22  4591.50  4621.66  5552.25

 Zero-point correction=                           0.108737 (Hartree/Particle)
 Thermal correction to Energy=                    0.116184
 Thermal correction to Enthalpy=                  0.117128
 Thermal correction to Gibbs Free Energy=         0.075117
 Sum of electronic and zero-point Energies=           -419.809788
 Sum of electronic and thermal Energies=              -419.802341
 Sum of electronic and thermal Enthalpies=            -419.801397
 Sum of electronic and thermal Free Energies=         -419.843408

                     E (Thermal)             CV                S
                      KCal/Mol        Cal/Mol-Kelvin    Cal/Mol-Kelvin
 Total                   72.906             25.294             88.420
 Electronic               0.000              0.000              1.377
 Translational            0.889              2.981             40.136
 Rotational               0.889              2.981             29.109
 Vibrational             71.129             19.332             17.798
 Vibration     1          0.597              1.971              4.324
 Vibration     2          0.605              1.946              3.386
 Vibration     3          0.631              1.862              2.291
 Vibration     4          0.660              1.771              1.764
 Vibration     5          0.701              1.650              1.349
 Vibration     6          0.716              1.607              1.238
 Vibration     7          0.784              1.424              0.888
 Vibration     8          0.829              1.312              0.732
 Vibration     9          0.944              1.060              0.473

 Normal termination of Gaussian 16 at Fri Jun 20 12:24:09 2025.
