 Gaussian 16, Revision A.03,
 Gaussian 16:  ES64L-G16RevA.03 25-Dec-2016

 --------------------------
 # freq 6-311++g(d,p) m062x
 --------------------------

 -------------------
 Title Card Required
 -------------------
 Symbolic Z-matrix:
 Charge =  0 Multiplicity = 2

                         Standard orientation:
 ---------------------------------------------------------------------
 Center     Atomic      Atomic             Coordinates (Angstroms)
 Number     Number       Type             X           Y           Z
 ---------------------------------------------------------------------
      1          8           0        4.561764   -0.245113    0.331663
      2          1           0        4.586255    0.635441   -0.061372
      3          6           0        2.250231   -0.305607   -0.070641
      4          1           0        3.843710   -0.728541   -0.149536
      5          6           0        1.093556    0.032179   -0.102846
      6          6           0       -0.310031    0.403378   -0.190911
      7          8           0       -0.695283    1.532283   -0.066726
      8          8           0       -1.075294   -0.658965   -0.422223
      9          6           0       -2.494058   -0.410381   -0.508808
     10          6           0       -3.108914   -0.284169    0.870916
     11          1           0       -2.879927   -1.275132   -1.045293
     12          1           0       -2.654700    0.489657   -1.103347
     13          1           0       -4.190888   -0.171996    0.778883
     14          1           0       -2.902916   -1.177367    1.462414
     15          1           0       -2.715728    0.589895    1.390289
 ---------------------------------------------------------------------

 SCF Done:  E(UM062X) =  -420.176518538     A.U. after   24 cycles

 The electronic state is 2-A.
 Alpha  occ. eigenvalues --  -19.68901 -19.67631 -19.63831 -10.71280 -10.61051
 Alpha  occ. eigenvalues --  -10.60859 -10.57797 -10.54165  -1.26339  -1.18467
 Alpha  occ. eigenvalues --   -1.17057  -0.91262  -0.87732  -0.78531  -0.70828
 Alpha  occ. eigenvalues --   -0.66675  -0.64684  -0.59049  -0.57022  -0.55126
 Alpha  occ. eigenvalues --   -0.53969  -0.49883  -0.47215  -0.46663  -0.45855
 Alpha  occ. eigenvalues --   -0.42639  -0.41990  -0.40172  -0.39101  -0.38389
 Alpha  occ. eigenvalues --   -0.37103
 Alpha virt. eigenvalues --   -0.02272  -0.00392   0.00142   0.01641   0.02283
 Alpha virt. eigenvalues --    0.02682   0.03431   0.04907   0.05330   0.06140
 Alpha virt. eigenvalues --    0.06941   0.07756   0.08042   0.08657   0.10271

  Beta  occ. eigenvalues --  -19.68913 -19.66991 -19.63831 -10.71257 -10.61052
  Beta  occ. eigenvalues --  -10.59609 -10.57678 -10.54165  -1.26348  -1.17065
  Beta  occ. eigenvalues --   -1.16191  -0.90607  -0.86554  -0.77926  -0.70156
  Beta  occ. eigenvalues --   -0.64839  -0.64213  -0.59059  -0.57076  -0.54248
  Beta  occ. eigenvalues --   -0.50652  -0.49861  -0.47233  -0.45837  -0.42961
  Beta  occ. eigenvalues --   -0.42446  -0.39660  -0.39118  -0.36778  -0.36171
  Beta virt. eigenvalues --   -0.15159  -0.01064  -0.00172   0.00390   0.01667
  Beta virt. eigenvalues --    0.02291   0.02985   0.03563   0.05320   0.05842
  Beta virt. eigenvalues --    0.06802   0.06988   0.07769   0.08124   0.08669

 Mulliken charges and spin densities:
               1          2
     1  O   -0.326182   0.251696
     2  H    0.276607  -0.007118
     3  C   -0.591644   0.821082
     4  H    0.373901  -0.033426
     5  C    1.094588   0.072881
     6  C   -0.856370  -0.101560
     7  O   -0.207973  -0.001320
     8  O    0.011703  -0.000487
     9  C   -0.282239  -0.001550
    10  C   -0.403067   0.000187
    11  H    0.197980  -0.000184
    12  H    0.193760   0.000057
    13  H    0.166554  -0.000034
    14  H    0.167656  -0.000018
    15  H    0.184726  -0.000206
 Sum of Mulliken charges =  -0.00000   1.00000

 Dipole moment (field-independent basis, Debye):
    X=             -1.3792    Y=             -0.5448    Z=             -1.2311  Tot=              1.9273
 Quadrupole moment (field-independent basis, Debye-Ang):
   XX=            -39.3577   YY=            -51.7161   ZZ=            -48.0060
   XY=              6.9945   XZ=             -4.5215   YZ=             -0.1273

  Exact polarizability: 137.154  -7.990  62.607   1.261   0.685  51.272
 Approx polarizability: 118.747 -12.885  80.500   2.812   1.965  58.144

 ******    3 imaginary frequencies (negative Signs) ******

                      1                      2                      3
                      A                      A                      A
 Frequencies --   -426.1340              -156.0409               -47.2562
 Red. masses --      1.0400                 1.1952                 8.2582
 Frc consts  --      0.1113                 0.0171                 0.0109
 IR Inten    --    171.5859                61.3497                 0.5782

                      4                      5                      6
                      A                      A                      A
 Frequencies --      9.1793                71.3921               108.7720
 Red. masses --      4.0387                 4.1228                 5.3151
 Frc consts  --      0.0002                 0.0124                 0.0371
 IR Inten    --     10.4691                 1.8771                 3.3916

                      7                      8                      9
                      A                      A                      A
 Frequencies --    123.7426               185.8151               229.1746
 Red. masses --      3.3825                 4.6334                 1.3353
 Frc consts  --      0.0305                 0.0943                 0.0413
 IR Inten    --      8.4698                67.9664                 3.5885

                     10                     11                     12
                      A                      A                      A
 Frequencies --    241.2452               332.9789               418.4785
 Red. masses --      7.9948                 2.8348                 3.5397
 Frc consts  --      0.2741                 0.1852                 0.3652
 IR Inten    --      7.4635                11.1782                14.0138

                     13                     14                     15
                      A                      A                      A
 Frequencies --    439.0757               550.3803               599.9536
 Red. masses --      1.0955                 5.8939                 7.2234
 Frc consts  --      0.1244                 1.0519                 1.5319
 IR Inten    --    137.0378                11.2703                43.7454

                     16                     17                     18
                      A                      A                      A
 Frequencies --    770.8824               799.0255               894.6951
 Red. masses --     10.2417                 1.2091                 3.0556
 Frc consts  --      3.5859                 0.4548                 1.4411
 IR Inten    --     16.7733                 5.0303                 8.0259

                     19                     20                     21
                      A                      A                      A
 Frequencies --    932.8411              1077.1534              1127.8323
 Red. masses --      2.9582                 4.1971                 2.0889
 Frc consts  --      1.5167                 2.8692                 1.5655
 IR Inten    --      4.1128                22.5012                26.4225

                     22                     23                     24
                      A                      A                      A
 Frequencies --   1203.0463              1288.1219              1347.9109
 Red. masses --      1.7791                 4.0698                 1.2217
 Frc consts  --      1.5171                 3.9787                 1.3078
 IR Inten    --      5.9202               759.2372               110.9433

                     25                     26                     27
                      A                      A                      A
 Frequencies --   1401.5265              1431.1398              1486.6139
 Red. masses --      1.2753                 1.3806                 1.0915
 Frc consts  --      1.4759                 1.6660                 1.4213
 IR Inten    --     35.8235                10.7754                70.9076

                     28                     29                     30
                      A                      A                      A
 Frequencies --   1492.7265              1501.6590              1514.1357
 Red. masses --      1.0414                 1.0672                 1.0790
 Frc consts  --      1.3671                 1.4179                 1.4575
 IR Inten    --     10.7828                 3.7965                18.6823

                     31                     32                     33
                      A                      A                      A
 Frequencies --   1840.3400              2230.2542              3076.1022
 Red. masses --     12.1532                11.5141                 1.0354
 Frc consts  --     24.2514                33.7433                 5.7722
 IR Inten    --    335.7547               108.6260                10.3532

                     34                     35                     36
                      A                      A                      A
 Frequencies --   3108.3795              3151.6638              3155.4646
 Red. masses --      1.0608                 1.1014                 1.1048
 Frc consts  --      6.0390                 6.4460                 6.4815
 IR Inten    --     18.3615                15.6739                 2.0147

                     37                     38                     39
                      A                      A                      A
 Frequencies --   3176.2129              3189.2309              3886.8226
 Red. masses --      1.1074                 1.0709                 1.0682
 Frc consts  --      6.5820                 6.4178                 9.5081
 IR Inten    --     15.1154               228.8429               136.2278

 - Thermochemistry -
 -------------------
 Temperature   298.150 Kelvin.  Pressure   1.00000 Atm.
 Atom     1 has atomic number  8 and mass  15.99491

 Molecular mass:   115.03952 amu.
 Principal axes and moments of inertia in atomic units:
                           1         2         3
     Eigenvalues --   287.785312625.970362738.68658
           X            0.99993   0.00768  -0.00912
           Y           -0.00774   0.99994  -0.00744
           Z            0.00906   0.00751   0.99993
 This molecule is an asymmetric top.
 Rotational symmetry number  1.
 Rotational temperatures (Kelvin)      0.30097     0.03298     0.03163
 Rotational constants (GHZ):           6.27114     0.68727     0.65898
    3 imaginary frequencies ignored.
 Zero-point vibrational energy     289460.2 (Joules/Mol)
                                   69.18265 (Kcal/Mol)
 Warning -- explicit consideration of  12 degrees of freedom as
           vibrations may cause significant error
 Vibrational temperatures:     13.21   102.72   156.50   178.04   267.35
          (Kelvin)            329.73   347.10   479.08   602.10   631.73
                              791.87   863.20  1109.13  1149.62  1287.27
                             1342.15  1549.78  1622.70  1730.92  1853.32
                             1939.34  2016.48  2059.09  2138.91  2147.70
                             2160.55  2178.50  2647.84  3208.84  4425.82
                             4472.26  4534.54  4540.01  4569.86  4588.59
                             5592.27

 Zero-point correction=                           0.110250 (Hartree/Particle)
 Thermal correction to Energy=                    0.119489
 Thermal correction to Enthalpy=                  0.120433
 Thermal correction to Gibbs Free Energy=         0.072836
 Sum of electronic and zero-point Energies=           -420.066269
 Sum of electronic and thermal Energies=              -420.057030
 Sum of electronic and thermal Enthalpies=            -420.056085
 Sum of electronic and thermal Free Energies=         -420.103682

                     E (Thermal)             CV                S
                      KCal/Mol        Cal/Mol-Kelvin    Cal/Mol-Kelvin
 Total                   74.980             29.701            100.176
 Electronic               0.000              0.000              1.377
 Translational            0.889              2.981             40.136
 Rotational               0.889              2.981             29.116
 Vibrational             73.203             23.740             29.547
 Vibration     1          0.593              1.987              8.181
 Vibration     2          0.598              1.968              4.115
 Vibration     3          0.606              1.942              3.291
 Vibration     4          0.610              1.929              3.041
 Vibration     5          0.632              1.859              2.269
 Vibration     6          0.652              1.796              1.885
 Vibration     7          0.658              1.777              1.794
 Vibration     8          0.715              1.610              1.246
 Vibration     9          0.781              1.430              0.897
 Vibration    10          0.799              1.385              0.830
 Vibration    11          0.906              1.139              0.543
 Vibration    12          0.958              1.032              0.450

 1\1\GINC-AJ\Freq\UM062X\6-311++G(d,p)\C5H7O3(2)\AAYUSH\16-Aug-2025\0\\
 # freq 6-311++g(d,p) m062x\\Title Card Required\\0,2\O,4.50214,-0.2655
 01,0.339432\H,4.527446,0.616251,-0.050855\C,2.190328,-0.322059,-0.0618
 39\H,3.783274,-0.746588,-0.1429\C,1.034029,0.017165,-0.092376\C,-0.369
 173,0.390263,-0.178537\O,-0.753051,1.519219,-0.050612\O,-1.135788,-0.6
 70463,-0.412772\C,-2.554308,-0.419967,-0.497829\C,-3.168294,-0.297367,
 0.882608\H,-2.94146,-1.282585,-1.036816\H,-2.714218,0.482115,-1.08946\
 H,-4.250185,-0.183654,0.791498\H,-2.963022,-1.192652,1.471196\H,-2.773

 Normal termination of Gaussian 16 at Sat Aug 16 14:00:49 2025.
