 Gaussian 16, Revision A.03,
 Gaussian 16:  ES64L-G16RevA.03 25-Dec-2016

 --------------------------
 # ccsd(t)/6-311++g(d,p) sp
 --------------------------

 -------------------
 Title Card Required
 -------------------
 Symbolic Z-matrix:
 Charge =  0 Multiplicity = 2

                         Standard orientation:
 ---------------------------------------------------------------------
 Center     Atomic      Atomic             Coordinates (Angstroms)
 Number     Number       Type             X           Y           Z
 ---------------------------------------------------------------------
      1          8           0        4.560373   -0.248570    0.327721
      2          1           0        4.590474    0.638413   -0.051910
      3          6           0        2.253053   -0.307384   -0.072940
      4          1           0        3.782961   -0.698302   -0.115114
      5          6           0        1.096047    0.030711   -0.103770
      6          6           0       -0.308543    0.403212   -0.190396
      7          8           0       -0.693661    1.532062   -0.064891
      8          8           0       -1.074705   -0.658192   -0.423128
      9          6           0       -2.493606   -0.408893   -0.509156
     10          6           0       -3.108311   -0.284377    0.870804
     11          1           0       -2.879740   -1.272806   -1.046780
     12          1           0       -2.653953    0.491989   -1.102476
     13          1           0       -4.190245   -0.171664    0.779005
     14          1           0       -2.902616   -1.178469    1.461048
     15          1           0       -2.714772    0.588827    1.391360
 ---------------------------------------------------------------------

 SCF Done:  E(UHF) =  -417.940744622     A.U. after   34 cycles
 E2 =    -0.1263290423D+01 EUMP2 =    -0.41920403504529D+03
 CCSD(T)= -0.41932414625D+03

 The electronic state is 2-A.
 Alpha  occ. eigenvalues --  -20.62160 -20.60506 -20.56796 -11.42595 -11.32002
 Alpha  occ. eigenvalues --  -11.30382 -11.26297 -11.23123  -1.49050  -1.39696
 Alpha  occ. eigenvalues --   -1.38598  -1.09562  -1.05388  -0.93673  -0.84573
 Alpha  occ. eigenvalues --   -0.79051  -0.76669  -0.70223  -0.67304  -0.66757
 Alpha  occ. eigenvalues --   -0.63961  -0.59024  -0.57381  -0.55340  -0.54838
 Alpha  occ. eigenvalues --   -0.54190  -0.51204  -0.48955  -0.47473  -0.46076
 Alpha  occ. eigenvalues --   -0.45927
 Alpha virt. eigenvalues --    0.03922   0.04823   0.05639   0.06356   0.07373
 Alpha virt. eigenvalues --    0.07960   0.08279   0.09076   0.11089   0.12177
 Alpha virt. eigenvalues --    0.12950   0.13282   0.14335   0.15410   0.16014

  Beta  occ. eigenvalues --  -20.62178 -20.59107 -20.57433 -11.42104 -11.30390
  Beta  occ. eigenvalues --  -11.28106 -11.26492 -11.23125  -1.49364  -1.39623
  Beta  occ. eigenvalues --   -1.35084  -1.08909  -1.04010  -0.91995  -0.83416
  Beta  occ. eigenvalues --   -0.76855  -0.72939  -0.70842  -0.67670  -0.64332
  Beta  occ. eigenvalues --   -0.59508  -0.58847  -0.56443  -0.54883  -0.52171
  Beta  occ. eigenvalues --   -0.51351  -0.49753  -0.48243  -0.44388  -0.43923
  Beta virt. eigenvalues --   -0.00324   0.03998   0.05613   0.06073   0.06366
  Beta virt. eigenvalues --    0.07449   0.08073   0.09060   0.09932   0.11569
  Beta virt. eigenvalues --    0.12587   0.13236   0.13529   0.14812   0.15498

 Mulliken charges and spin densities:
               1          2
     1  O   -0.374946   0.234305
     2  H    0.270493  -0.012781
     3  C   -0.555446   1.945197
     4  H    0.358297  -0.095227
     5  C    1.317788  -1.089876
     6  C   -0.932929   0.146377
     7  O   -0.272088  -0.131736
     8  O   -0.086767   0.003367
     9  C   -0.166416   0.002448
    10  C   -0.360098  -0.001293
    11  H    0.169163  -0.000251
    12  H    0.176495  -0.000128
    13  H    0.137227  -0.000120
    14  H    0.145766  -0.000114
    15  H    0.173462  -0.000169
 Sum of Mulliken charges =  -0.00000   1.00000

 Dipole moment (field-independent basis, Debye):
    X=             -1.8387    Y=             -0.7537    Z=             -1.3879  Tot=              2.4239
 Quadrupole moment (field-independent basis, Debye-Ang):
   XX=            -43.9910   YY=            -52.0143   ZZ=            -47.7958
   XY=              7.1926   XZ=             -4.7765   YZ=             -0.1811

 Normal termination of Gaussian 16 at Sun Aug 17 13:51:58 2025.
