 Gaussian 16, Revision A.03,
 Gaussian 16:  ES64L-G16RevA.03 25-Dec-2016

 --------------------------
 # ccsd(t)/6-311++g(d,p) sp
 --------------------------

 -------------------
 Title Card Required
 -------------------
 Symbolic Z-matrix:
 Charge =  0 Multiplicity = 2

                         Standard orientation:
 ---------------------------------------------------------------------
 Center     Atomic      Atomic             Coordinates (Angstroms)
 Number     Number       Type             X           Y           Z
 ---------------------------------------------------------------------
      1          8           0        4.559874   -0.249632    0.326535
      2          1           0        4.592038    0.639411   -0.048934
      3          6           0        2.254125   -0.307953   -0.073601
      4          1           0        3.761844   -0.688733   -0.104695
      5          6           0        1.096957    0.030147   -0.104077
      6          6           0       -0.308007    0.403173   -0.190225
      7          8           0       -0.693169    1.531999   -0.064403
      8          8           0       -1.074519   -0.657966   -0.423381
      9          6           0       -2.493448   -0.408444   -0.509254
     10          6           0       -3.108120   -0.284387    0.870771
     11          1           0       -2.879683   -1.272119   -1.047188
     12          1           0       -2.653714    0.492672   -1.102233
     13          1           0       -4.190044   -0.171503    0.779044
     14          1           0       -2.902520   -1.178726    1.460669
     15          1           0       -2.714458    0.588572    1.391647
 ---------------------------------------------------------------------

 SCF Done:  E(UHF) =  -417.939616201     A.U. after   34 cycles
 E2 =    -0.1264143916D+01 EUMP2 =    -0.41920376011742D+03
 CCSD(T)= -0.41932383625D+03

 The electronic state is 2-A.
 Alpha  occ. eigenvalues --  -20.62156 -20.60757 -20.56796 -11.42599 -11.31965
 Alpha  occ. eigenvalues --  -11.30380 -11.26305 -11.23121  -1.49044  -1.39845
 Alpha  occ. eigenvalues --   -1.38594  -1.09537  -1.05381  -0.93668  -0.84594
 Alpha  occ. eigenvalues --   -0.79268  -0.76672  -0.70219  -0.67318  -0.66807
 Alpha  occ. eigenvalues --   -0.63972  -0.59018  -0.57299  -0.55372  -0.54876
 Alpha  occ. eigenvalues --   -0.54335  -0.51201  -0.48945  -0.47443  -0.46060
 Alpha  occ. eigenvalues --   -0.45913
 Alpha virt. eigenvalues --    0.03923   0.04819   0.05642   0.06357   0.07361
 Alpha virt. eigenvalues --    0.07980   0.08283   0.09077   0.11098   0.12182
 Alpha virt. eigenvalues --    0.12963   0.13288   0.14341   0.15452   0.16000

  Beta  occ. eigenvalues --  -20.62174 -20.59262 -20.57429 -11.42111 -11.30387
  Beta  occ. eigenvalues --  -11.28111 -11.26504 -11.23123  -1.49356  -1.39613
  Beta  occ. eigenvalues --   -1.34898  -1.08898  -1.04011  -0.91999  -0.83420
  Beta  occ. eigenvalues --   -0.76851  -0.72835  -0.70834  -0.67661  -0.64329
  Beta  occ. eigenvalues --   -0.59503  -0.58769  -0.56433  -0.54878  -0.52226
  Beta  occ. eigenvalues --   -0.51352  -0.49744  -0.48235  -0.44373  -0.43911
  Beta virt. eigenvalues --   -0.00425   0.03998   0.05615   0.06038   0.06366
  Beta virt. eigenvalues --    0.07431   0.08091   0.09061   0.09919   0.11569
  Beta virt. eigenvalues --    0.12571   0.13239   0.13542   0.14803   0.15492

 Mulliken charges and spin densities:
               1          2
     1  O   -0.372047   0.256368
     2  H    0.270222  -0.013570
     3  C   -0.559579   1.928289
     4  H    0.363239  -0.102682
     5  C    1.319746  -1.088839
     6  C   -0.938393   0.147611
     7  O   -0.272143  -0.130930
     8  O   -0.086697   0.003366
     9  C   -0.166340   0.002443
    10  C   -0.360078  -0.001281
    11  H    0.169187  -0.000250
    12  H    0.176492  -0.000123
    13  H    0.137194  -0.000121
    14  H    0.145767  -0.000115
    15  H    0.173430  -0.000167
 Sum of Mulliken charges =  -0.00000   1.00000

 Dipole moment (field-independent basis, Debye):
    X=             -1.8156    Y=             -0.7214    Z=             -1.3498  Tot=              2.3746
 Quadrupole moment (field-independent basis, Debye-Ang):
   XX=            -43.7604   YY=            -52.0589   ZZ=            -47.8073
   XY=              7.3268   XZ=             -4.6040   YZ=             -0.2063

 Normal termination of Gaussian 16 at Sun Aug 17 14:44:58 2025.
