 Gaussian 16, Revision A.03,
 Gaussian 16:  ES64L-G16RevA.03 25-Dec-2016

 -------------------
 # freq 6-31+g m062x
 -------------------

 -------------------
 Title Card Required
 -------------------
 Symbolic Z-matrix:
 Charge =  0 Multiplicity = 2

                         Standard orientation:
 ---------------------------------------------------------------------
 Center     Atomic      Atomic             Coordinates (Angstroms)
 Number     Number       Type             X           Y           Z
 ---------------------------------------------------------------------
      1          8           0        4.560561   -0.256769    0.320732
      2          1           0        4.608118    0.648330   -0.029009
      3          6           0        2.265527   -0.313129   -0.077114
      4          1           0        3.496192   -0.621679   -0.047643
      5          6           0        1.106358    0.024073   -0.106299
      6          6           0       -0.302148    0.403126   -0.189045
      7          8           0       -0.688972    1.531820   -0.062856
      8          8           0       -1.072582   -0.656727   -0.424507
      9          6           0       -2.491314   -0.405390   -0.509775
     10          6           0       -3.106102   -0.282747    0.870451
     11          1           0       -2.878722   -1.267900   -1.048884
     12          1           0       -2.651003    0.496764   -1.101337
     13          1           0       -4.187956   -0.168526    0.779074
     14          1           0       -2.901359   -1.178167    1.459044
     15          1           0       -2.711264    0.588985    1.392487
 ---------------------------------------------------------------------

 SCF Done:  E(UM062X) =  -419.925987058     A.U. after   24 cycles

 The electronic state is 2-A.
 Alpha  occ. eigenvalues --  -19.73685 -19.70937 -19.66581 -10.73272 -10.61828
 Alpha  occ. eigenvalues --  -10.60156 -10.58864 -10.54814  -1.28291  -1.20498
 Alpha  occ. eigenvalues --   -1.18916  -0.91297  -0.87889  -0.78751  -0.71680
 Alpha  occ. eigenvalues --   -0.68030  -0.64600  -0.58697  -0.57780  -0.57014
 Alpha  occ. eigenvalues --   -0.54383  -0.49803  -0.47388  -0.47143  -0.45678
 Alpha  occ. eigenvalues --   -0.43855  -0.42228  -0.39642  -0.38592  -0.37698
 Alpha  occ. eigenvalues --   -0.36759
 Alpha virt. eigenvalues --   -0.01909   0.01216   0.02173   0.03449   0.04136
 Alpha virt. eigenvalues --    0.04735   0.05006   0.06576   0.07490   0.08415
 Alpha virt. eigenvalues --    0.08863   0.09071   0.09347   0.10700   0.12456

  Beta  occ. eigenvalues --  -19.72351 -19.70943 -19.66580 -10.73261 -10.61828
  Beta  occ. eigenvalues --  -10.59490 -10.58794 -10.54814  -1.28292  -1.18918
  Beta  occ. eigenvalues --   -1.15623  -0.90965  -0.87239  -0.78432  -0.70874
  Beta  occ. eigenvalues --   -0.64884  -0.63578  -0.58703  -0.57052  -0.54497
  Beta  occ. eigenvalues --   -0.52068  -0.49788  -0.47178  -0.45603  -0.43708
  Beta  occ. eigenvalues --   -0.42278  -0.39346  -0.38597  -0.36882  -0.36325
  Beta virt. eigenvalues --   -0.16326  -0.01421   0.01665   0.02236   0.03468
  Beta virt. eigenvalues --    0.04633   0.04813   0.05048   0.06682   0.07662
  Beta virt. eigenvalues --    0.08463   0.08956   0.09090   0.09484   0.10916

 Mulliken charges and spin densities:
               1          2
     1  O   -0.451470   0.690936
     2  H    0.419866  -0.024247
     3  C    1.184273   0.113930
     4  H    0.494065  -0.050781
     5  C   -0.385377   0.227177
     6  C   -1.010793   0.043950
     7  O   -0.351861  -0.000449
     8  O   -0.207947  -0.000430
     9  C   -0.251204   0.000236
    10  C   -0.560814  -0.000223
    11  H    0.221526  -0.000022
    12  H    0.233031  -0.000030
    13  H    0.208920  -0.000053
    14  H    0.221326  -0.000002
    15  H    0.236458   0.000008
 Sum of Mulliken charges =  -0.00000   1.00000

 Dipole moment (field-independent basis, Debye):
    X=             -0.6686    Y=             -0.0194    Z=             -0.9934  Tot=              1.1976
 Quadrupole moment (field-independent basis, Debye-Ang):
   XX=            -34.6548   YY=            -53.5211   ZZ=            -48.4658
   XY=              9.1833   XZ=             -3.4248   YZ=             -0.4276

  Exact polarizability: 128.058  -6.355  58.597   3.264   0.402  46.010
 Approx polarizability: 113.131 -12.986  74.437   4.060   1.764  47.598

 ******    5 imaginary frequencies (negative Signs) ******

                      1                      2                      3
                      A                      A                      A
 Frequencies --  -1263.2553              -470.2763              -170.0237
 Red. masses --      1.0602                 1.0503                 3.4775
 Frc consts  --      0.9969                 0.1369                 0.0592
 IR Inten    --    459.4497               128.0529                35.1859

                      4                      5                      6
                      A                      A                      A
 Frequencies --   -111.9544               -29.0229                51.3475
 Red. masses --      8.4122                 2.9734                 3.9840
 Frc consts  --      0.0621                 0.0015                 0.0062
 IR Inten    --      8.4445                 0.2173                 8.2465

                      7                      8                      9
                      A                      A                      A
 Frequencies --    112.4968               185.8797               269.0206
 Red. masses --      3.3711                 1.2956                 3.9875
 Frc consts  --      0.0251                 0.0264                 0.1700
 IR Inten    --      4.4382                 1.4615                16.2849

                     10                     11                     12
                      A                      A                      A
 Frequencies --    317.4438               406.9699               431.1899
 Red. masses --      3.1882                 5.9065                 3.7052
 Frc consts  --      0.1893                 0.5764                 0.4059
 IR Inten    --      7.5492                 9.7427                 1.9141

                     13                     14                     15
                      A                      A                      A
 Frequencies --    569.9415               635.5453               676.9868
 Red. masses --      2.5562                 3.6442                 2.8954
 Frc consts  --      0.4892                 0.8673                 0.7819
 IR Inten    --     60.3910                33.4107               151.0062

                     16                     17                     18
                      A                      A                      A
 Frequencies --    800.6206               821.6819               892.7653
 Red. masses --      2.6562                 1.8516                 2.6684
 Frc consts  --      1.0031                 0.7365                 1.2531
 IR Inten    --     33.2040                10.7240                21.5478

                     19                     20                     21
                      A                      A                      A
 Frequencies --    924.8908               991.9108              1114.4635
 Red. masses --      1.9446                 1.8782                 4.1128
 Frc consts  --      0.9801                 1.0888                 3.0097
 IR Inten    --     33.9087                59.6979                 5.9896

                     22                     23                     24
                      A                      A                      A
 Frequencies --   1157.5843              1227.1478              1325.8523
 Red. masses --      2.0966                 1.7633                 2.1604
 Frc consts  --      1.6553                 1.5645                 2.2376
 IR Inten    --     26.7103                 3.8881               447.6922

                     25                     26                     27
                      A                      A                      A
 Frequencies --   1370.0010              1442.3621              1455.7888
 Red. masses --      1.6375                 1.3614                 1.2627
 Frc consts  --      1.8108                 1.6688                 1.5767
 IR Inten    --    312.9968                36.1124                17.4739

                     28                     29                     30
                      A                      A                      A
 Frequencies --   1506.0011              1528.0616              1535.8274
 Red. masses --      1.0782                 1.0424                 1.0772
 Frc consts  --      1.4408                 1.4340                 1.4970
 IR Inten    --    285.1076                13.3505                10.4678

                     31                     32                     33
                      A                      A                      A
 Frequencies --   1544.7971              1905.2684              2370.6902
 Red. masses --      1.0665                12.3959                10.8099
 Frc consts  --      1.4996                26.5118                35.7948
 IR Inten    --     25.0534               324.9188                60.1833

                     34                     35                     36
                      A                      A                      A
 Frequencies --   3107.9760              3137.9794              3187.8702
 Red. masses --      1.0351                 1.0601                 1.1008
 Frc consts  --      5.8909                 6.1505                 6.5910
 IR Inten    --     13.5993                20.5741                12.8896

                     37                     38                     39
                      A                      A                      A
 Frequencies --   3190.9476              3211.8971              3815.4737
 Red. masses --      1.1022                 1.1053                 1.0655
 Frc consts  --      6.6121                 6.7179                 9.1394
 IR Inten    --      7.9315                17.6413                70.8768

 - Thermochemistry -
 -------------------
 Temperature   298.150 Kelvin.  Pressure   1.00000 Atm.
 Atom     1 has atomic number  8 and mass  15.99491

 Molecular mass:   115.03952 amu.
 Principal axes and moments of inertia in atomic units:
                           1         2         3
     Eigenvalues --   286.962052617.905432730.49223
           X            0.99993   0.00867  -0.00849
           Y           -0.00875   0.99992  -0.00953
           Z            0.00841   0.00961   0.99992
 This molecule is an asymmetric top.
 Rotational symmetry number  1.
 Rotational temperatures (Kelvin)      0.30183     0.03309     0.03172
 Rotational constants (GHZ):           6.28913     0.68938     0.66096
    5 imaginary frequencies ignored.
 Zero-point vibrational energy     282466.3 (Joules/Mol)
                                   67.51107 (Kcal/Mol)
 Warning -- explicit consideration of   8 degrees of freedom as
           vibrations may cause significant error
 Vibrational temperatures:     73.88   161.86   267.44   387.06   456.73
          (Kelvin)            585.54   620.39   820.02   914.41   974.03
                             1151.91  1182.22  1284.49  1330.71  1427.14
                             1603.46  1665.51  1765.59  1907.61  1971.13
                             2075.24  2094.56  2166.80  2198.54  2209.71
                             2222.62  2741.26  3410.89  4471.68  4514.85
                             4586.63  4591.06  4621.20  5489.62

 Zero-point correction=                           0.107586 (Hartree/Particle)
 Thermal correction to Energy=                    0.114828
 Thermal correction to Enthalpy=                  0.115772
 Thermal correction to Gibbs Free Energy=         0.074029
 Sum of electronic and zero-point Energies=           -419.818401
 Sum of electronic and thermal Energies=              -419.811159
 Sum of electronic and thermal Enthalpies=            -419.810215
 Sum of electronic and thermal Free Energies=         -419.851958

                     E (Thermal)             CV                S
                      KCal/Mol        Cal/Mol-Kelvin    Cal/Mol-Kelvin
 Total                   72.056             24.934             87.856
 Electronic               0.000              0.000              1.377
 Translational            0.889              2.981             40.136
 Rotational               0.889              2.981             29.107
 Vibrational             70.278             18.973             17.235
 Vibration     1          0.596              1.977              4.765
 Vibration     2          0.607              1.939              3.225
 Vibration     3          0.632              1.859              2.269
 Vibration     4          0.673              1.730              1.602
 Vibration     5          0.704              1.640              1.323
 Vibration     6          0.772              1.455              0.937
 Vibration     7          0.792              1.402              0.855
 Vibration     8          0.926              1.096              0.504

 Normal termination of Gaussian 16 at Fri Jun 20 12:23:25 2025.
