 Gaussian 16, Revision A.03,
 Gaussian 16:  ES64L-G16RevA.03 25-Dec-2016

 -------------------
 # freq 6-31+g m062x
 -------------------

 -------------------
 Title Card Required
 -------------------
 Symbolic Z-matrix:
 Charge =  0 Multiplicity = 2

                         Standard orientation:
 ---------------------------------------------------------------------
 Center     Atomic      Atomic             Coordinates (Angstroms)
 Number     Number       Type             X           Y           Z
 ---------------------------------------------------------------------
      1          8           0        4.558833   -0.251726    0.324257
      2          1           0        4.595354    0.641287   -0.043336
      3          6           0        2.256384   -0.309055   -0.074801
      4          1           0        3.719379   -0.669351   -0.084483
      5          6           0        1.098836    0.028933   -0.104694
      6          6           0       -0.306909    0.403123   -0.189880
      7          8           0       -0.692249    1.531889   -0.063505
      8          8           0       -1.074172   -0.657544   -0.423871
      9          6           0       -2.493129   -0.407586   -0.509446
     10          6           0       -3.107746   -0.284383    0.870698
     11          1           0       -2.879588   -1.270805   -1.047963
     12          1           0       -2.653253    0.493978   -1.101776
     13          1           0       -4.189651   -0.171165    0.779123
     14          1           0       -2.902325   -1.179192    1.459949
     15          1           0       -2.713827    0.588104    1.392172
 ---------------------------------------------------------------------

 SCF Done:  E(UM062X) =  -419.917039957     A.U. after   22 cycles

 The electronic state is 2-A.
 Alpha  occ. eigenvalues --  -19.71409 -19.71243 -19.66931 -10.73611 -10.62148
 Alpha  occ. eigenvalues --  -10.62040 -10.59462 -10.54982  -1.28658  -1.20816
 Alpha  occ. eigenvalues --   -1.19284  -0.91938  -0.88459  -0.79068  -0.71656
 Alpha  occ. eigenvalues --   -0.68409  -0.64940  -0.59014  -0.57359  -0.55685
 Alpha  occ. eigenvalues --   -0.54485  -0.50054  -0.47426  -0.46454  -0.45881
 Alpha  occ. eigenvalues --   -0.43114  -0.42290  -0.40128  -0.38907  -0.38494
 Alpha  occ. eigenvalues --   -0.37344
 Alpha virt. eigenvalues --   -0.02377   0.01401   0.02087   0.03320   0.03793
 Alpha virt. eigenvalues --    0.04606   0.04841   0.06427   0.07302   0.08296
 Alpha virt. eigenvalues --    0.08782   0.09007   0.09172   0.10571   0.12341

  Beta  occ. eigenvalues --  -19.71253 -19.70511 -19.66932 -10.73589 -10.62040
  Beta  occ. eigenvalues --  -10.61093 -10.59376 -10.54983  -1.28662  -1.19293
  Beta  occ. eigenvalues --   -1.17846  -0.91321  -0.87489  -0.78615  -0.70989
  Beta  occ. eigenvalues --   -0.65544  -0.64784  -0.59032  -0.57396  -0.54666
  Beta  occ. eigenvalues --   -0.50252  -0.50032  -0.47416  -0.45835  -0.43359
  Beta  occ. eigenvalues --   -0.42466  -0.39601  -0.38900  -0.37124  -0.36554
  Beta virt. eigenvalues --   -0.16931  -0.01451   0.01746   0.02206   0.03356
  Beta virt. eigenvalues --    0.04443   0.04680   0.04921   0.06541   0.07573
  Beta virt. eigenvalues --    0.08334   0.08798   0.09044   0.09402   0.10809

 Mulliken charges and spin densities:
               1          2
     1  O   -0.561669   0.386716
     2  H    0.430832  -0.013902
     3  C    1.530020   0.331369
     4  H    0.493786  -0.031087
     5  C   -0.543821   0.272287
     6  C   -1.102668   0.057523
     7  O   -0.349598  -0.001750
     8  O   -0.206569  -0.001005
     9  C   -0.254398   0.000590
    10  C   -0.559813  -0.000549
    11  H    0.222344  -0.000045
    12  H    0.233438  -0.000066
    13  H    0.209728  -0.000097
    14  H    0.221818  -0.000004
    15  H    0.236569   0.000020
 Sum of Mulliken charges =  -0.00000   1.00000

 Dipole moment (field-independent basis, Debye):
    X=             -1.3079    Y=             -0.1620    Z=             -1.2892  Tot=              1.8436
 Quadrupole moment (field-independent basis, Debye-Ang):
   XX=            -38.9317   YY=            -53.1973   ZZ=            -48.4764
   XY=              8.6243   XZ=             -4.8234   YZ=             -0.2930

  Exact polarizability: 138.195  -7.782  59.719   2.722   0.572  46.590
 Approx polarizability: 117.198 -13.758  75.362   3.977   2.193  48.047

 ******    5 imaginary frequencies (negative Signs) ******

                      1                      2                      3
                      A                      A                      A
 Frequencies --   -865.2309              -496.1077              -167.8977
 Red. masses --      1.0289                 1.0527                 2.4134
 Frc consts  --      0.4538                 0.1527                 0.0401
 IR Inten    --    155.5985               130.1510                63.7520

                      4                      5                      6
                      A                      A                      A
 Frequencies --    -71.7773               -23.2423                56.2656
 Red. masses --      6.5114                 2.9875                 4.2441
 Frc consts  --      0.0198                 0.0010                 0.0079
 IR Inten    --      3.4945                 0.6003                13.7685

                      7                      8                      9
                      A                      A                      A
 Frequencies --     91.5014               182.0922               222.5450
 Red. masses --      5.0656                 1.2892                 3.5477
 Frc consts  --      0.0250                 0.0252                 0.1035
 IR Inten    --      6.0732                 6.4543                59.9681

                     10                     11                     12
                      A                      A                      A
 Frequencies --    284.3516               312.5048               382.0749
 Red. masses --      3.1999                 3.3254                 2.5235
 Frc consts  --      0.1524                 0.1913                 0.2170
 IR Inten    --      9.4937                 8.6618               132.4252

                     13                     14                     15
                      A                      A                      A
 Frequencies --    426.1762               583.1375               620.9549
 Red. masses --      4.1604                 5.0914                 8.7506
 Frc consts  --      0.4452                 1.0201                 1.9880
 IR Inten    --     18.6408                 4.3934                57.7067

                     16                     17                     18
                      A                      A                      A
 Frequencies --    797.1155               815.4327               898.9459
 Red. masses --      8.1445                 1.3214                 3.3464
 Frc consts  --      3.0490                 0.5177                 1.5933
 IR Inten    --     14.3503                 5.8477                10.5884

                     19                     20                     21
                      A                      A                      A
 Frequencies --    947.5020              1112.0973              1157.2269
 Red. masses --      2.6496                 4.2207                 2.0825
 Frc consts  --      1.4015                 3.0755                 1.6431
 IR Inten    --      2.6119                 7.2977                22.3843

                     22                     23                     24
                      A                      A                      A
 Frequencies --   1227.1946              1325.1990              1360.1698
 Red. masses --      1.7596                 2.1171                 1.1349
 Frc consts  --      1.5613                 2.1905                 1.2371
 IR Inten    --      5.6429               499.3497                62.2497

                     25                     26                     27
                      A                      A                      A
 Frequencies --   1371.8408              1443.0594              1456.2657
 Red. masses --      1.6569                 1.3679                 1.2649
 Frc consts  --      1.8372                 1.6784                 1.5805
 IR Inten    --    312.5297                48.1132                15.7511

                     28                     29                     30
                      A                      A                      A
 Frequencies --   1528.1420              1535.9604              1544.8590
 Red. masses --      1.0422                 1.0760                 1.0675
 Frc consts  --      1.4339                 1.4956                 1.5011
 IR Inten    --     14.9291                 7.7735                23.0269

                     31                     32                     33
                      A                      A                      A
 Frequencies --   1906.8025              2299.3456              2562.6195
 Red. masses --     12.4135                 5.9371                 1.1775
 Frc consts  --     26.5923                18.4942                 4.5558
 IR Inten    --    310.9318               368.8516               602.9986

                     34                     35                     36
                      A                      A                      A
 Frequencies --   3108.2345              3138.3325              3188.3964
 Red. masses --      1.0351                 1.0602                 1.1007
 Frc consts  --      5.8919                 6.1524                 6.5929
 IR Inten    --     13.2673                20.0403                12.8419

                     37                     38                     39
                      A                      A                      A
 Frequencies --   3191.3320              3212.3072              3878.1566
 Red. masses --      1.1022                 1.1053                 1.0656
 Frc consts  --      6.6137                 6.7199                 9.4427
 IR Inten    --      7.5302                17.3358               112.8227

 - Thermochemistry -
 -------------------
 Temperature   298.150 Kelvin.  Pressure   1.00000 Atm.
 Atom     1 has atomic number  8 and mass  15.99491

 Molecular mass:   115.03952 amu.
 Principal axes and moments of inertia in atomic units:
                           1         2         3
     Eigenvalues --   287.248202621.670482734.31450
           X            0.99993   0.00817  -0.00865
           Y           -0.00825   0.99993  -0.00894
           Z            0.00857   0.00901   0.99992
 This molecule is an asymmetric top.
 Rotational symmetry number  1.
 Rotational temperatures (Kelvin)      0.30153     0.03304     0.03168
 Rotational constants (GHZ):           6.28286     0.68839     0.66003
    5 imaginary frequencies ignored.
 Zero-point vibrational energy     288109.5 (Joules/Mol)
                                   68.85982 (Kcal/Mol)
 Warning -- explicit consideration of   9 degrees of freedom as
           vibrations may cause significant error
 Vibrational temperatures:     80.95   131.65   261.99   320.19   409.12
          (Kelvin)            449.62   549.72   613.17   839.00   893.42
                             1146.87  1173.23  1293.38  1363.24  1600.06
                             1664.99  1765.66  1906.67  1956.98  1973.77
                             2076.24  2095.24  2198.66  2209.90  2222.71
                             2743.46  3308.25  3687.04  4472.06  4515.36
                             4587.39  4591.61  4621.79  5579.80

 Zero-point correction=                           0.109735 (Hartree/Particle)
 Thermal correction to Energy=                    0.117395
 Thermal correction to Enthalpy=                  0.118340
 Thermal correction to Gibbs Free Energy=         0.075735
 Sum of electronic and zero-point Energies=           -419.807305
 Sum of electronic and thermal Energies=              -419.799644
 Sum of electronic and thermal Enthalpies=            -419.798700
 Sum of electronic and thermal Free Energies=         -419.841305

                     E (Thermal)             CV                S
                      KCal/Mol        Cal/Mol-Kelvin    Cal/Mol-Kelvin
 Total                   73.667             25.578             89.668
 Electronic               0.000              0.000              1.377
 Translational            0.889              2.981             40.136
 Rotational               0.889              2.981             29.111
 Vibrational             71.889             19.616             19.044
 Vibration     1          0.596              1.975              4.584
 Vibration     2          0.602              1.955              3.628
 Vibration     3          0.630              1.864              2.307
 Vibration     4          0.648              1.807              1.938
 Vibration     5          0.683              1.703              1.507
 Vibration     6          0.701              1.650              1.349
 Vibration     7          0.752              1.508              1.031
 Vibration     8          0.788              1.413              0.871
 Vibration     9          0.940              1.068              0.480

 Normal termination of Gaussian 16 at Fri Jun 20 12:19:42 2025.
