 Gaussian 16, Revision A.03,
 Gaussian 16:  ES64L-G16RevA.03 25-Dec-2016

 -------------------
 # freq 6-31+g m062x
 -------------------

 -------------------
 Title Card Required
 -------------------
 Symbolic Z-matrix:
 Charge =  0 Multiplicity = 2

                         Standard orientation:
 ---------------------------------------------------------------------
 Center     Atomic      Atomic             Coordinates (Angstroms)
 Number     Number       Type             X           Y           Z
 ---------------------------------------------------------------------
      1          8           0        4.558901   -0.256494    0.320068
      2          1           0        4.605858    0.646989   -0.030983
      3          6           0        2.264035   -0.312422   -0.077190
      4          1           0        3.549029   -0.623674   -0.046550
      5          6           0        1.105021    0.024877   -0.106246
      6          6           0       -0.303106    0.403106   -0.189078
      7          8           0       -0.689584    1.531772   -0.062439
      8          8           0       -1.072983   -0.656750   -0.424552
      9          6           0       -2.491801   -0.405611   -0.509623
     10          6           0       -3.106394   -0.283343    0.870700
     11          1           0       -2.879081   -1.268060   -1.048882
     12          1           0       -2.651608    0.496638   -1.101002
     13          1           0       -4.188261   -0.169251    0.779444
     14          1           0       -2.901482   -1.178860    1.459075
     15          1           0       -2.711659    0.588339    1.392902
 ---------------------------------------------------------------------

 SCF Done:  E(UM062X) =  -419.922718101     A.U. after   24 cycles

 The electronic state is 2-A.
 Alpha  occ. eigenvalues --  -19.73183 -19.71030 -19.66695 -10.73385 -10.61892
 Alpha  occ. eigenvalues --  -10.60748 -10.59060 -10.54865  -1.28400  -1.20593
 Alpha  occ. eigenvalues --   -1.19026  -0.91468  -0.88056  -0.78844  -0.71713
 Alpha  occ. eigenvalues --   -0.68257  -0.64701  -0.58792  -0.57341  -0.57072
 Alpha  occ. eigenvalues --   -0.54448  -0.49879  -0.47302  -0.47009  -0.45733
 Alpha  occ. eigenvalues --   -0.43534  -0.42257  -0.39772  -0.38682  -0.37928
 Alpha  occ. eigenvalues --   -0.36942
 Alpha virt. eigenvalues --   -0.02047   0.01279   0.02139   0.03411   0.04046
 Alpha virt. eigenvalues --    0.04700   0.04960   0.06534   0.07435   0.08380
 Alpha virt. eigenvalues --    0.08837   0.09049   0.09296   0.10664   0.12425

  Beta  occ. eigenvalues --  -19.71958 -19.71036 -19.66694 -10.73370 -10.61892
  Beta  occ. eigenvalues --  -10.59969 -10.58986 -10.54865  -1.28401  -1.19029
  Beta  occ. eigenvalues --   -1.16278  -0.91064  -0.87310  -0.78486  -0.70906
  Beta  occ. eigenvalues --   -0.64977  -0.63908  -0.58801  -0.57153  -0.54542
  Beta  occ. eigenvalues --   -0.51521  -0.49863  -0.47248  -0.45672  -0.43682
  Beta  occ. eigenvalues --   -0.42341  -0.39424  -0.38687  -0.36966  -0.36402
  Beta virt. eigenvalues --   -0.16837  -0.01467   0.01696   0.02217   0.03434
  Beta virt. eigenvalues --    0.04584   0.04771   0.05009   0.06641   0.07630
  Beta virt. eigenvalues --    0.08425   0.08913   0.09071   0.09452   0.10883

 Mulliken charges and spin densities:
               1          2
     1  O   -0.482714   0.611895
     2  H    0.422556  -0.021320
     3  C    1.295014   0.114890
     4  H    0.499858  -0.050352
     5  C   -0.452913   0.291005
     6  C   -1.033031   0.054992
     7  O   -0.350986  -0.000493
     8  O   -0.207231  -0.000541
     9  C   -0.251990   0.000344
    10  C   -0.560631  -0.000298
    11  H    0.221804  -0.000027
    12  H    0.233146  -0.000040
    13  H    0.209172  -0.000063
    14  H    0.221484  -0.000003
    15  H    0.236462   0.000010
 Sum of Mulliken charges =  -0.00000   1.00000

 Dipole moment (field-independent basis, Debye):
    X=             -0.8513    Y=             -0.0304    Z=             -1.0432  Tot=              1.3468
 Quadrupole moment (field-independent basis, Debye-Ang):
   XX=            -35.8127   YY=            -53.4708   ZZ=            -48.4775
   XY=              9.1399   XZ=             -3.6656   YZ=             -0.4131

  Exact polarizability: 130.716  -6.697  58.829   3.372   0.429  46.141
 Approx polarizability: 115.547 -13.315  74.733   4.245   1.855  47.736

 ******    5 imaginary frequencies (negative Signs) ******

                      1                      2                      3
                      A                      A                      A
 Frequencies --  -1310.7424              -471.1977              -153.8294
 Red. masses --      1.0331                 1.0485                 3.5868
 Frc consts  --      1.0457                 0.1372                 0.0500
 IR Inten    --    486.3286               121.2841                29.7214

                      4                      5                      6
                      A                      A                      A
 Frequencies --    -84.4652               -25.2056                59.9434
 Red. masses --      7.9892                 2.9559                 4.2171
 Frc consts  --      0.0336                 0.0011                 0.0089
 IR Inten    --      6.4920                 0.3219                11.8839

                      7                      8                      9
                      A                      A                      A
 Frequencies --    111.5028               185.3488               266.0552
 Red. masses --      3.5945                 1.2878                 3.9627
 Frc consts  --      0.0263                 0.0261                 0.1653
 IR Inten    --      4.1850                 1.9278                20.3146

                     10                     11                     12
                      A                      A                      A
 Frequencies --    316.7720               386.5568               425.6830
 Red. masses --      3.1458                 6.2546                 3.7206
 Frc consts  --      0.1860                 0.5507                 0.3972
 IR Inten    --      7.3689                10.3873                 2.8856

                     13                     14                     15
                      A                      A                      A
 Frequencies --    564.3223               618.0071               649.6475
 Red. masses --      2.3045                 2.8977                 4.4837
 Frc consts  --      0.4324                 0.6521                 1.1149
 IR Inten    --     70.5484                67.3167                96.9791

                     16                     17                     18
                      A                      A                      A
 Frequencies --    802.6178               818.8047               895.4342
 Red. masses --      3.0286                 1.7774                 3.0479
 Frc consts  --      1.1495                 0.7021                 1.4398
 IR Inten    --     21.4574                 6.7702                12.9130

                     19                     20                     21
                      A                      A                      A
 Frequencies --    934.3820              1017.6833              1114.4087
 Red. masses --      2.1162                 1.5424                 4.0625
 Frc consts  --      1.0885                 0.9412                 2.9726
 IR Inten    --     17.4283                82.0513                 3.5175

                     22                     23                     24
                      A                      A                      A
 Frequencies --   1157.5765              1227.1760              1325.4811
 Red. masses --      2.0951                 1.7638                 2.1858
 Frc consts  --      1.6540                 1.5650                 2.2626
 IR Inten    --     25.4420                 4.8509               475.8366

                     25                     26                     27
                      A                      A                      A
 Frequencies --   1369.9679              1442.5392              1455.9335
 Red. masses --      1.6299                 1.3635                 1.2639
 Frc consts  --      1.8024                 1.6718                 1.5785
 IR Inten    --    321.6916                43.3223                16.3041

                     28                     29                     30
                      A                      A                      A
 Frequencies --   1528.0705              1535.8261              1544.7885
 Red. masses --      1.0422                 1.0767                 1.0665
 Frc consts  --      1.4338                 1.4963                 1.4995
 IR Inten    --     15.2681                 7.4416                21.1588

                     31                     32                     33
                      A                      A                      A
 Frequencies --   1602.9266              1905.3467              2357.9320
 Red. masses --      1.0662                12.4061                10.7166
 Frc consts  --      1.6141                26.5359                35.1051
 IR Inten    --    402.7114               323.0979                54.8675

                     34                     35                     36
                      A                      A                      A
 Frequencies --   3108.0499              3138.0978              3188.0325
 Red. masses --      1.0351                 1.0602                 1.1008
 Frc consts  --      5.8912                 6.1511                 6.5916
 IR Inten    --     13.4987                20.4381                12.8511

                     37                     38                     39
                      A                      A                      A
 Frequencies --   3191.0612              3212.0166              3828.9118
 Red. masses --      1.1022                 1.1053                 1.0653
 Frc consts  --      6.6125                 6.7185                 9.2022
 IR Inten    --      7.8436                17.5567                85.3084

 - Thermochemistry -
 -------------------
 Temperature   298.150 Kelvin.  Pressure   1.00000 Atm.
 Atom     1 has atomic number  8 and mass  15.99491

 Molecular mass:   115.03952 amu.
 Principal axes and moments of inertia in atomic units:
                           1         2         3
     Eigenvalues --   286.957362618.241742730.83204
           X            0.99993   0.00861  -0.00837
           Y           -0.00869   0.99992  -0.00961
           Z            0.00829   0.00968   0.99992
 This molecule is an asymmetric top.
 Rotational symmetry number  1.
 Rotational temperatures (Kelvin)      0.30184     0.03308     0.03172
 Rotational constants (GHZ):           6.28923     0.68930     0.66088
    5 imaginary frequencies ignored.
 Zero-point vibrational energy     282838.5 (Joules/Mol)
                                   67.60002 (Kcal/Mol)
 Warning -- explicit consideration of   9 degrees of freedom as
           vibrations may cause significant error
 Vibrational temperatures:     86.25   160.43   266.68   382.79   455.76
          (Kelvin)            556.17   612.46   811.93   889.17   934.70
                             1154.79  1178.08  1288.33  1344.37  1464.22
                             1603.39  1665.49  1765.63  1907.07  1971.08
                             2075.49  2094.76  2198.55  2209.71  2222.61
                             2306.25  2741.37  3392.54  4471.79  4515.02
                             4586.87  4591.23  4621.38  5508.95

 Zero-point correction=                           0.107727 (Hartree/Particle)
 Thermal correction to Energy=                    0.115002
 Thermal correction to Enthalpy=                  0.115946
 Thermal correction to Gibbs Free Energy=         0.074255
 Sum of electronic and zero-point Energies=           -419.814991
 Sum of electronic and thermal Energies=              -419.807716
 Sum of electronic and thermal Enthalpies=            -419.806772
 Sum of electronic and thermal Free Energies=         -419.848463

                     E (Thermal)             CV                S
                      KCal/Mol        Cal/Mol-Kelvin    Cal/Mol-Kelvin
 Total                   72.165             25.034             87.746
 Electronic               0.000              0.000              1.377
 Translational            0.889              2.981             40.136
 Rotational               0.889              2.981             29.108
 Vibrational             70.387             19.073             17.125
 Vibration     1          0.597              1.973              4.459
 Vibration     2          0.607              1.940              3.243
 Vibration     3          0.631              1.860              2.274
 Vibration     4          0.672              1.735              1.622
 Vibration     5          0.704              1.642              1.327
 Vibration     6          0.755              1.499              1.013
 Vibration     7          0.788              1.414              0.873
 Vibration     8          0.920              1.108              0.515
 Vibration     9          0.978              0.994              0.420

 Normal termination of Gaussian 16 at Fri Jun 20 12:16:45 2025.
