 Gaussian 16, Revision A.03,
 Gaussian 16:  ES64L-G16RevA.03 25-Dec-2016

 --------------------------
 # freq 6-311++g(d,p) m062x
 --------------------------

 -------------------
 Title Card Required
 -------------------
 Symbolic Z-matrix:
 Charge =  0 Multiplicity = 2

                         Standard orientation:
 ---------------------------------------------------------------------
 Center     Atomic      Atomic             Coordinates (Angstroms)
 Number     Number       Type             X           Y           Z
 ---------------------------------------------------------------------
      1          8           0        4.562802   -0.256740    0.320594
      2          1           0        4.610391    0.649543   -0.028446
      3          6           0        2.266521   -0.313738   -0.077507
      4          1           0        3.443636   -0.622911   -0.052215
      5          6           0        1.107532    0.023365   -0.106567
      6          6           0       -0.301270    0.403153   -0.188984
      7          8           0       -0.688423    1.531884   -0.063291
      8          8           0       -1.072283   -0.656756   -0.424104
      9          6           0       -2.490946   -0.405258   -0.509271
     10          6           0       -3.105607   -0.282068    0.870985
     11          1           0       -2.878596   -1.267907   -1.048023
     12          1           0       -2.650674    0.496721   -1.101097
     13          1           0       -4.187471   -0.167751    0.779727
     14          1           0       -2.900878   -1.177308    1.459867
     15          1           0       -2.710559    0.589792    1.392645
 ---------------------------------------------------------------------

 SCF Done:  E(UM062X) =  -420.179747620     A.U. after   22 cycles

 The electronic state is 2-A.
 Alpha  occ. eigenvalues --  -19.71319 -19.68485 -19.63347 -10.70844 -10.60768
 Alpha  occ. eigenvalues --  -10.58072 -10.57007 -10.53935  -1.25837  -1.18969
 Alpha  occ. eigenvalues --   -1.16550  -0.90446  -0.86990  -0.78124  -0.71060
 Alpha  occ. eigenvalues --   -0.67196  -0.64164  -0.58616  -0.58427  -0.56561
 Alpha  occ. eigenvalues --   -0.53889  -0.49526  -0.47479  -0.46859  -0.45611
 Alpha  occ. eigenvalues --   -0.44214  -0.42190  -0.39534  -0.38706  -0.37222
 Alpha  occ. eigenvalues --   -0.36238
 Alpha virt. eigenvalues --   -0.01638  -0.00688   0.00098   0.01799   0.02342
 Alpha virt. eigenvalues --    0.02735   0.03851   0.05260   0.05444   0.06461
 Alpha virt. eigenvalues --    0.07030   0.07923   0.08287   0.08858   0.10227

  Beta  occ. eigenvalues --  -19.69969 -19.68490 -19.63343 -10.70836 -10.60769
  Beta  occ. eigenvalues --  -10.57512 -10.56927 -10.53935  -1.25837  -1.16544
  Beta  occ. eigenvalues --   -1.13359  -0.90178  -0.86393  -0.77789  -0.70168
  Beta  occ. eigenvalues --   -0.64534  -0.62529  -0.58608  -0.56594  -0.54265
  Beta  occ. eigenvalues --   -0.52875  -0.49502  -0.46865  -0.45521  -0.43712
  Beta  occ. eigenvalues --   -0.42199  -0.39294  -0.38698  -0.36521  -0.35903
  Beta virt. eigenvalues --   -0.15459  -0.01219  -0.00291   0.00217   0.01808
  Beta virt. eigenvalues --    0.02385   0.02851   0.03979   0.05445   0.05684
  Beta virt. eigenvalues --    0.06652   0.07123   0.07940   0.08424   0.08918

 Mulliken charges and spin densities:
               1          2
     1  O   -0.234559   0.726708
     2  H    0.268320  -0.017906
     3  C   -0.660758   0.324860
     4  H    0.403860  -0.029044
     5  C    1.133651   0.033824
     6  C   -0.929920  -0.038589
     7  O   -0.212527   0.000889
     8  O    0.009341   0.000181
     9  C   -0.280970  -0.001054
    10  C   -0.402975   0.000266
    11  H    0.196709  -0.000087
    12  H    0.193343   0.000095
    13  H    0.165039  -0.000006
    14  H    0.167027  -0.000008
    15  H    0.184420  -0.000129
 Sum of Mulliken charges =  -0.00000   1.00000

 Dipole moment (field-independent basis, Debye):
    X=             -0.4967    Y=             -0.2986    Z=             -0.8019  Tot=              0.9894
 Quadrupole moment (field-independent basis, Debye-Ang):
   XX=            -33.3990   YY=            -52.2342   ZZ=            -48.0889
   XY=              8.0446   XZ=             -2.5121   YZ=             -0.4137

  Exact polarizability: 130.854  -5.987  60.435   2.509   0.489  50.304
 Approx polarizability: 117.424 -11.828  78.901   3.491   1.332  57.388

 ******    3 imaginary frequencies (negative Signs) ******

                      1                      2                      3
                      A                      A                      A
 Frequencies --  -1317.7777              -159.2507               -85.6890
 Red. masses --      1.0952                 2.6327                 6.3562
 Frc consts  --      1.1205                 0.0393                 0.0275
 IR Inten    --    402.8482                14.8006                 4.7622

                      4                      5                      6
                      A                      A                      A
 Frequencies --     76.9120               114.6891               154.5918
 Red. masses --      3.6204                 3.5192                 2.9957
 Frc consts  --      0.0126                 0.0273                 0.0422
 IR Inten    --      1.3835                 0.7803                20.4011

                      7                      8                      9
                      A                      A                      A
 Frequencies --    181.1207               226.3637               280.7589
 Red. masses --      1.5921                 1.2782                 3.7781
 Frc consts  --      0.0308                 0.0386                 0.1755
 IR Inten    --     82.6816                 2.1455                17.9616

                     10                     11                     12
                      A                      A                      A
 Frequencies --    337.6070               414.2285               443.0956
 Red. masses --      2.9503                 5.7353                 3.9789
 Frc consts  --      0.1981                 0.5798                 0.4603
 IR Inten    --      8.8496                 3.1764                 1.4679

                     13                     14                     15
                      A                      A                      A
 Frequencies --    573.1215               633.4726               702.2754
 Red. masses --      5.0809                 4.1287                 1.3023
 Frc consts  --      0.9833                 0.9761                 0.3784
 IR Inten    --     14.4696                 6.4175               163.2440

                     16                     17                     18
                      A                      A                      A
 Frequencies --    782.1406               797.6056               888.9044
 Red. masses --      8.2873                 1.2510                 2.6755
 Frc consts  --      2.9870                 0.4689                 1.2456
 IR Inten    --     24.7720                 3.3699                40.9044

                     19                     20                     21
                      A                      A                      A
 Frequencies --    905.7180               974.7633              1078.2516
 Red. masses --      1.9430                 1.7340                 3.9907
 Frc consts  --      0.9391                 0.9707                 2.7336
 IR Inten    --     29.3750                60.3938                33.8500

                     22                     23                     24
                      A                      A                      A
 Frequencies --   1127.4639              1202.2112              1282.5302
 Red. masses --      2.0849                 1.7709                 3.7771
 Frc consts  --      1.5615                 1.5080                 3.6605
 IR Inten    --     28.2718                 4.0665               681.0457

                     25                     26                     27
                      A                      A                      A
 Frequencies --   1346.5111              1399.4304              1419.7543
 Red. masses --      1.2014                 1.2429                 1.2095
 Frc consts  --      1.2833                 1.4341                 1.4364
 IR Inten    --     88.0290                 8.6848               129.3072

                     28                     29                     30
                      A                      A                      A
 Frequencies --   1433.7273              1492.5466              1501.5106
 Red. masses --      1.3822                 1.0413                 1.0688
 Frc consts  --      1.6741                 1.3667                 1.4197
 IR Inten    --     52.9243                10.9617                 5.5795

                     31                     32                     33
                      A                      A                      A
 Frequencies --   1513.9375              1837.7082              2325.2877
 Red. masses --      1.0781                12.0225                 9.9381
 Frc consts  --      1.4559                23.9221                31.6596
 IR Inten    --     21.3853               362.5664                48.9648

                     34                     35                     36
                      A                      A                      A
 Frequencies --   3075.7875              3108.0611              3151.1079
 Red. masses --      1.0354                 1.0607                 1.1014
 Frc consts  --      5.7710                 6.0370                 6.4438
 IR Inten    --     10.6515                18.8462                15.5559

                     37                     38                     39
                      A                      A                      A
 Frequencies --   3155.0662              3175.6863              3792.0199
 Red. masses --      1.1049                 1.1074                 1.0667
 Frc consts  --      6.4801                 6.5798                 9.0374
 IR Inten    --      2.1660                15.0568               101.0655

 - Thermochemistry -
 -------------------
 Temperature   298.150 Kelvin.  Pressure   1.00000 Atm.
 Atom     1 has atomic number  8 and mass  15.99491

 Molecular mass:   115.03952 amu.
 Principal axes and moments of inertia in atomic units:
                           1         2         3
     Eigenvalues --   286.986092617.768342730.35483
           X            0.99993   0.00872  -0.00839
           Y           -0.00879   0.99992  -0.00937
           Z            0.00830   0.00945   0.99992
 This molecule is an asymmetric top.
 Rotational symmetry number  1.
 Rotational temperatures (Kelvin)      0.30181     0.03309     0.03172
 Rotational constants (GHZ):           6.28860     0.68942     0.66099
    3 imaginary frequencies ignored.
 Zero-point vibrational energy     280560.0 (Joules/Mol)
                                   67.05545 (Kcal/Mol)
 Warning -- explicit consideration of  10 degrees of freedom as
           vibrations may cause significant error
 Vibrational temperatures:    110.66   165.01   222.42   260.59   325.69
          (Kelvin)            403.95   485.74   595.98   637.52   824.59
                              911.43  1010.42  1125.33  1147.58  1278.94
                             1303.13  1402.47  1551.36  1622.17  1729.71
                             1845.27  1937.33  2013.47  2042.71  2062.81
                             2147.44  2160.34  2178.22  2644.05  3345.57
                             4425.37  4471.81  4533.74  4539.44  4569.10
                             5455.87

 Zero-point correction=                           0.106860 (Hartree/Particle)
 Thermal correction to Energy=                    0.115177
 Thermal correction to Enthalpy=                  0.116122
 Thermal correction to Gibbs Free Energy=         0.072687
 Sum of electronic and zero-point Energies=           -420.072888
 Sum of electronic and thermal Energies=              -420.064570
 Sum of electronic and thermal Enthalpies=            -420.063626
 Sum of electronic and thermal Free Energies=         -420.107061

                     E (Thermal)             CV                S
                      KCal/Mol        Cal/Mol-Kelvin    Cal/Mol-Kelvin
 Total                   72.275             28.768             91.417
 Electronic               0.000              0.000              1.377
 Translational            0.889              2.981             40.136
 Rotational               0.889              2.981             29.107
 Vibrational             70.497             22.807             20.796
 Vibration     1          0.599              1.965              3.968
 Vibration     2          0.608              1.937              3.188
 Vibration     3          0.620              1.898              2.615
 Vibration     4          0.630              1.865              2.317
 Vibration     5          0.650              1.801              1.908
 Vibration     6          0.680              1.709              1.529
 Vibration     7          0.718              1.600              1.223
 Vibration     8          0.778              1.439              0.912
 Vibration     9          0.803              1.376              0.817
 Vibration    10          0.929              1.089              0.498

 1\1\GINC-AJ\Freq\UM062X\6-311++G(d,p)\C5H7O3(2)\AAYUSH\23-Jun-2025\0\\
 # freq 6-311++g(d,p) m062x\\Title Card Required\\0,2\O,4.562802,-0.256
 74,0.320594\H,4.610391,0.649543,-0.028446\C,2.266521,-0.313738,-0.0775
 07\H,3.443636,-0.622911,-0.052215\C,1.107532,0.023365,-0.106567\C,-0.3
 0127,0.403153,-0.188984\O,-0.688423,1.531884,-0.063291\O,-1.072283,-0.
 656756,-0.424104\C,-2.490946,-0.405258,-0.509271\C,-3.105607,-0.282068
 ,0.870985\H,-2.878596,-1.267907,-1.048023\H,-2.650674,0.496721,-1.1010
 97\H,-4.187471,-0.167751,0.779727\H,-2.900878,-1.177308,1.459867\H,-2.

 Normal termination of Gaussian 16 at Mon Jun 23 00:57:46 2025.
