 Gaussian 16, Revision A.03,
 Gaussian 16:  ES64L-G16RevA.03 25-Dec-2016

 --------------------------
 # freq 6-311++g(d,p) m062x
 --------------------------

 -------------------
 Title Card Required
 -------------------
 Symbolic Z-matrix:
 Charge =  0 Multiplicity = 2

                         Standard orientation:
 ---------------------------------------------------------------------
 Center     Atomic      Atomic             Coordinates (Angstroms)
 Number     Number       Type             X           Y           Z
 ---------------------------------------------------------------------
      1          8           0        4.558362   -0.252731    0.323197
      2          1           0        4.597074    0.642184   -0.040746
      3          6           0        2.257538   -0.309587   -0.075339
      4          1           0        3.697583   -0.659875   -0.074975
      5          6           0        1.099792    0.028297   -0.104998
      6          6           0       -0.306347    0.403109   -0.189713
      7          8           0       -0.691815    1.531844   -0.063112
      8          8           0       -1.074006   -0.657353   -0.424096
      9          6           0       -2.492963   -0.407184   -0.509533
     10          6           0       -3.107558   -0.284357    0.870665
     11          1           0       -2.879544   -1.270195   -1.048304
     12          1           0       -2.653026    0.494580   -1.101572
     13          1           0       -4.189455   -0.170975    0.779165
     14          1           0       -2.902222   -1.179375    1.459629
     15          1           0       -2.713507    0.587917    1.392398
 ---------------------------------------------------------------------

 SCF Done:  E(UM062X) =  -420.174565134     A.U. after   22 cycles

 The electronic state is 2-A.
 Alpha  occ. eigenvalues --  -19.68907 -19.68595 -19.63871 -10.71335 -10.61062
 Alpha  occ. eigenvalues --  -10.60457 -10.57866 -10.54174  -1.26334  -1.18684
 Alpha  occ. eigenvalues --   -1.17058  -0.91191  -0.87693  -0.78536  -0.71016
 Alpha  occ. eigenvalues --   -0.67360  -0.64658  -0.59054  -0.57036  -0.56015
 Alpha  occ. eigenvalues --   -0.54159  -0.49879  -0.47225  -0.46105  -0.45872
 Alpha  occ. eigenvalues --   -0.42940  -0.42315  -0.40140  -0.39110  -0.38269
 Alpha  occ. eigenvalues --   -0.37091
 Alpha virt. eigenvalues --   -0.02231  -0.00403   0.00097   0.01647   0.02283
 Alpha virt. eigenvalues --    0.02689   0.03576   0.04914   0.05324   0.06169
 Alpha virt. eigenvalues --    0.06908   0.07755   0.08123   0.08661   0.10246

  Beta  occ. eigenvalues --  -19.68918 -19.67778 -19.63865 -10.71316 -10.61063
  Beta  occ. eigenvalues --  -10.59370 -10.57754 -10.54174  -1.26337  -1.17053
  Beta  occ. eigenvalues --   -1.15643  -0.90602  -0.86637  -0.77989  -0.70259
  Beta  occ. eigenvalues --   -0.64846  -0.63791  -0.59054  -0.57065  -0.54283
  Beta  occ. eigenvalues --   -0.51029  -0.49858  -0.47222  -0.45832  -0.43178
  Beta  occ. eigenvalues --   -0.42468  -0.39669  -0.39115  -0.36858  -0.36236
  Beta virt. eigenvalues --   -0.16418  -0.01286  -0.00208   0.00347   0.01666
  Beta virt. eigenvalues --    0.02293   0.02918   0.03755   0.05317   0.05746
  Beta virt. eigenvalues --    0.06607   0.06973   0.07776   0.08185   0.08689

 Mulliken charges and spin densities:
               1          2
     1  O   -0.320475   0.363611
     2  H    0.271948  -0.008970
     3  C   -0.617881   0.703047
     4  H    0.416524  -0.038480
     5  C    1.101556   0.065656
     6  C   -0.881963  -0.084264
     7  O   -0.207388   0.001078
     8  O    0.011771  -0.000095
     9  C   -0.281714  -0.001481
    10  C   -0.403192   0.000201
    11  H    0.198182  -0.000162
    12  H    0.193903   0.000090
    13  H    0.166420  -0.000030
    14  H    0.167732  -0.000012
    15  H    0.184579  -0.000189
 Sum of Mulliken charges =  -0.00000   1.00000

 Dipole moment (field-independent basis, Debye):
    X=             -1.3288    Y=             -0.3649    Z=             -1.0245  Tot=              1.7171
 Quadrupole moment (field-independent basis, Debye-Ang):
   XX=            -38.5180   YY=            -51.9491   ZZ=            -48.0647
   XY=              7.7542   XZ=             -3.5564   YZ=             -0.2924

  Exact polarizability: 144.068  -8.763  61.905   2.108   0.534  50.870
 Approx polarizability: 123.162 -13.331  80.241   3.435   1.722  57.851

 ******    1 imaginary frequencies (negative Signs) ******

                      1                      2                      3
                      A                      A                      A
 Frequencies --   -763.2091                25.0996                27.8694
 Red. masses --      1.0563                 5.9774                 5.1572
 Frc consts  --      0.3625                 0.0022                 0.0024
 IR Inten    --    187.3328                 5.0109                 3.3911

                      4                      5                      6
                      A                      A                      A
 Frequencies --     65.6688               104.0909               115.1766
 Red. masses --      1.8255                 1.9122                 4.1990
 Frc consts  --      0.0046                 0.0122                 0.0328
 IR Inten    --     27.1689                47.5553                 2.7394

                      7                      8                      9
                      A                      A                      A
 Frequencies --    140.3007               217.7352               240.2638
 Red. masses --      3.4662                 1.6984                 2.5225
 Frc consts  --      0.0402                 0.0474                 0.0858
 IR Inten    --      1.5868                20.5406                15.3162

                     10                     11                     12
                      A                      A                      A
 Frequencies --    278.0238               334.1730               421.8300
 Red. masses --      7.0128                 2.8782                 3.9294
 Frc consts  --      0.3194                 0.1894                 0.4120
 IR Inten    --     35.7787                 9.4699                 4.8973

                     13                     14                     15
                      A                      A                      A
 Frequencies --    504.6424               555.5012               597.4695
 Red. masses --      1.0847                 6.1918                 6.1951
 Frc consts  --      0.1628                 1.1257                 1.3030
 IR Inten    --    185.3198                12.1082                46.4771

                     16                     17                     18
                      A                      A                      A
 Frequencies --    773.1595               798.4708               894.1066
 Red. masses --     10.1101                 1.2130                 3.0880
 Frc consts  --      3.5608                 0.4556                 1.4545
 IR Inten    --     17.5204                 4.5078                 7.1602

                     19                     20                     21
                      A                      A                      A
 Frequencies --    930.6493              1076.1574              1127.5250
 Red. masses --      2.8990                 4.1792                 2.0852
 Frc consts  --      1.4793                 2.8517                 1.5619
 IR Inten    --      2.3743                24.3116                27.1779

                     22                     23                     24
                      A                      A                      A
 Frequencies --   1202.6908              1285.5834              1347.2535
 Red. masses --      1.7773                 4.1736                 1.2115
 Frc consts  --      1.5147                 4.0640                 1.2956
 IR Inten    --      5.9896               812.1213               108.7574

                     25                     26                     27
                      A                      A                      A
 Frequencies --   1374.4606              1401.3681              1430.8883
 Red. masses --      1.1280                 1.2744                 1.3789
 Frc consts  --      1.2555                 1.4745                 1.6634
 IR Inten    --     26.6179                35.3365                 9.8020

                     28                     29                     30
                      A                      A                      A
 Frequencies --   1492.7006              1501.5896              1514.0216
 Red. masses --      1.0412                 1.0673                 1.0784
 Frc consts  --      1.3669                 1.4179                 1.4565
 IR Inten    --     11.5637                 4.4589                19.4965

                     31                     32                     33
                      A                      A                      A
 Frequencies --   1838.4364              2182.6607              2351.3562
 Red. masses --     12.1277                 2.4238                 1.6903
 Frc consts  --     24.1504                 6.8034                 5.5062
 IR Inten    --    335.3234               547.5047               293.3773

                     34                     35                     36
                      A                      A                      A
 Frequencies --   3076.1115              3108.5257              3151.7151
 Red. masses --      1.0354                 1.0608                 1.1014
 Frc consts  --      5.7722                 6.0395                 6.4462
 IR Inten    --     10.2504                18.2594                15.3057

                     37                     38                     39
                      A                      A                      A
 Frequencies --   3155.4785              3176.2989              3857.3755
 Red. masses --      1.1049                 1.1074                 1.0668
 Frc consts  --      6.4817                 6.5826                 9.3524
 IR Inten    --      1.9378                14.6759               155.9552

 - Thermochemistry -
 -------------------
 Temperature   298.150 Kelvin.  Pressure   1.00000 Atm.
 Atom     1 has atomic number  8 and mass  15.99491

 Molecular mass:   115.03952 amu.
 Principal axes and moments of inertia in atomic units:
                           1         2         3
     Eigenvalues --   287.175622621.000322733.63369
           X            0.99993   0.00825  -0.00858
           Y           -0.00833   0.99992  -0.00914
           Z            0.00851   0.00921   0.99992
 This molecule is an asymmetric top.
 Rotational symmetry number  1.
 Rotational temperatures (Kelvin)      0.30161     0.03305     0.03168
 Rotational constants (GHZ):           6.28445     0.68857     0.66020
    1 imaginary frequencies ignored.
 Zero-point vibrational energy     285168.4 (Joules/Mol)
                                   68.15688 (Kcal/Mol)
 Warning -- explicit consideration of  14 degrees of freedom as
           vibrations may cause significant error
 Vibrational temperatures:     36.11    40.10    94.48   149.76   165.71
          (Kelvin)            201.86   313.27   345.69   400.01   480.80
                              606.92   726.07   799.24   859.63  1112.40
                             1148.82  1286.42  1339.00  1548.35  1622.26
                             1730.40  1849.67  1938.40  1977.54  2016.26
                             2058.73  2147.66  2160.45  2178.34  2645.10
                             3140.36  3383.08  4425.84  4472.48  4534.62
                             4540.03  4569.99  5549.90

 Zero-point correction=                           0.108615 (Hartree/Particle)
 Thermal correction to Energy=                    0.119226
 Thermal correction to Enthalpy=                  0.120170
 Thermal correction to Gibbs Free Energy=         0.069561
 Sum of electronic and zero-point Energies=           -420.065950
 Sum of electronic and thermal Energies=              -420.055339
 Sum of electronic and thermal Enthalpies=            -420.054395
 Sum of electronic and thermal Free Energies=         -420.105004

                     E (Thermal)             CV                S
                      KCal/Mol        Cal/Mol-Kelvin    Cal/Mol-Kelvin
 Total                   74.815             33.369            106.515
 Electronic               0.000              0.000              1.377
 Translational            0.889              2.981             40.136
 Rotational               0.889              2.981             29.110
 Vibrational             73.038             27.407             35.892
 Vibration     1          0.593              1.985              6.183
 Vibration     2          0.593              1.984              5.976
 Vibration     3          0.597              1.971              4.279
 Vibration     4          0.605              1.946              3.376
 Vibration     5          0.608              1.937              3.180
 Vibration     6          0.615              1.913              2.800
 Vibration     7          0.646              1.814              1.978
 Vibration     8          0.657              1.779              1.801
 Vibration     9          0.679              1.714              1.546
 Vibration    10          0.716              1.607              1.240
 Vibration    11          0.784              1.423              0.886
 Vibration    12          0.860              1.240              0.647
 Vibration    13          0.911              1.128              0.533
 Vibration    14          0.955              1.037              0.454

 1\1\GINC-AJ\Freq\UM062X\6-311++G(d,p)\C5H7O3(2)\AAYUSH\23-Jun-2025\0\\
 # freq 6-311++g(d,p) m062x\\Title Card Required\\0,2\O,4.558362,-0.252
 731,0.323197\H,4.597074,0.642184,-0.040746\C,2.257538,-0.309587,-0.075
 339\H,3.697583,-0.659875,-0.074975\C,1.099792,0.028297,-0.104998\C,-0.
 306347,0.403109,-0.189713\O,-0.691815,1.531844,-0.063112\O,-1.074006,-
 0.657353,-0.424096\C,-2.492963,-0.407184,-0.509533\C,-3.107558,-0.2843
 57,0.870665\H,-2.879544,-1.270195,-1.048304\H,-2.653026,0.49458,-1.101
 572\H,-4.189455,-0.170975,0.779165\H,-2.902222,-1.179375,1.459629\H,-2

 Normal termination of Gaussian 16 at Mon Jun 23 00:53:28 2025.
