 Gaussian 16, Revision A.03,
 Gaussian 16:  ES64L-G16RevA.03 25-Dec-2016

 --------------------------
 # freq 6-311++g(d,p) m062x
 --------------------------

 -------------------
 Title Card Required
 -------------------
 Symbolic Z-matrix:
 Charge =  0 Multiplicity = 2

                         Standard orientation:
 ---------------------------------------------------------------------
 Center     Atomic      Atomic             Coordinates (Angstroms)
 Number     Number       Type             X           Y           Z
 ---------------------------------------------------------------------
      1          8           0        4.558051   -0.253680    0.322087
      2          1           0        4.598760    0.643073   -0.038477
      3          6           0        2.258692   -0.310087   -0.075928
      4          1           0        3.674656   -0.651378   -0.067115
      5          6           0        1.100735    0.027683   -0.105315
      6          6           0       -0.305785    0.403132   -0.189484
      7          8           0       -0.691401    1.531818   -0.062532
      8          8           0       -1.073853   -0.657120   -0.424343
      9          6           0       -2.492804   -0.406735   -0.509576
     10          6           0       -3.107338   -0.284428    0.870708
     11          1           0       -2.879528   -1.269469   -1.048698
     12          1           0       -2.652829    0.495305   -1.101208
     13          1           0       -4.189231   -0.170890    0.779329
     14          1           0       -2.902063   -1.179732    1.459265
     15          1           0       -2.713136    0.587566    1.392792
 ---------------------------------------------------------------------

 SCF Done:  E(UM062X) =  -420.174453592     A.U. after   22 cycles

 The electronic state is 2-A.
 Alpha  occ. eigenvalues --  -19.68883 -19.68853 -19.63845 -10.71312 -10.61045
 Alpha  occ. eigenvalues --  -10.60316 -10.57824 -10.54160  -1.26303  -1.18725
 Alpha  occ. eigenvalues --   -1.17028  -0.91139  -0.87650  -0.78510  -0.71029
 Alpha  occ. eigenvalues --   -0.67424  -0.64629  -0.59028  -0.57015  -0.56211
 Alpha  occ. eigenvalues --   -0.54156  -0.49858  -0.47207  -0.46141  -0.45855
 Alpha  occ. eigenvalues --   -0.42990  -0.42321  -0.40099  -0.39086  -0.38202
 Alpha  occ. eigenvalues --   -0.37042
 Alpha virt. eigenvalues --   -0.02195  -0.00414   0.00087   0.01656   0.02288
 Alpha virt. eigenvalues --    0.02691   0.03603   0.04935   0.05331   0.06186
 Alpha virt. eigenvalues --    0.06914   0.07764   0.08142   0.08670   0.10241

  Beta  occ. eigenvalues --  -19.68892 -19.67996 -19.63838 -10.71293 -10.61045
  Beta  occ. eigenvalues --  -10.59264 -10.57713 -10.54160  -1.26305  -1.17022
  Beta  occ. eigenvalues --   -1.15515  -0.90574  -0.86623  -0.77978  -0.70254
  Beta  occ. eigenvalues --   -0.64823  -0.63674  -0.59028  -0.57035  -0.54271
  Beta  occ. eigenvalues --   -0.51145  -0.49836  -0.47199  -0.45813  -0.43247
  Beta  occ. eigenvalues --   -0.42455  -0.39646  -0.39089  -0.36840  -0.36216
  Beta virt. eigenvalues --   -0.16547  -0.01303  -0.00211   0.00330   0.01675
  Beta virt. eigenvalues --    0.02300   0.02907   0.03779   0.05324   0.05731
  Beta virt. eigenvalues --    0.06589   0.06982   0.07786   0.08203   0.08702

 Mulliken charges and spin densities:
               1          2
     1  O   -0.316141   0.389456
     2  H    0.271423  -0.009481
     3  C   -0.623498   0.676430
     4  H    0.421919  -0.039045
     5  C    1.104210   0.064092
     6  C   -0.887688  -0.081070
     7  O   -0.207577   0.001212
     8  O    0.011640  -0.000054
     9  C   -0.281666  -0.001455
    10  C   -0.403186   0.000205
    11  H    0.198114  -0.000157
    12  H    0.193878   0.000092
    13  H    0.166324  -0.000028
    14  H    0.167696  -0.000011
    15  H    0.184553  -0.000185
 Sum of Mulliken charges =  -0.00000   1.00000

 Dipole moment (field-independent basis, Debye):
    X=             -1.2741    Y=             -0.3474    Z=             -0.9962  Tot=              1.6542
 Quadrupole moment (field-independent basis, Debye-Ang):
   XX=            -38.1429   YY=            -51.9852   ZZ=            -48.0723
   XY=              7.8264   XZ=             -3.4227   YZ=             -0.3128

  Exact polarizability: 143.387  -8.552  61.746   2.256   0.532  50.808
 Approx polarizability: 123.563 -13.295  80.165   3.550   1.685  57.825

 ******    1 imaginary frequencies (negative Signs) ******

                      1                      2                      3
                      A                      A                      A
 Frequencies --   -839.0334                32.9211                38.3147
 Red. masses --      1.0517                 4.6608                 6.6357
 Frc consts  --      0.4362                 0.0030                 0.0057
 IR Inten    --    249.3754                 7.1770                 1.1368

                      4                      5                      6
                      A                      A                      A
 Frequencies --     75.5833               114.5850               125.3802
 Red. masses --      2.4830                 3.0640                 2.0156
 Frc consts  --      0.0084                 0.0237                 0.0187
 IR Inten    --     12.8664                 5.9196                55.2743

                      7                      8                      9
                      A                      A                      A
 Frequencies --    146.5335               220.3486               245.0255
 Red. masses --      2.7032                 1.4885                 3.2154
 Frc consts  --      0.0342                 0.0426                 0.1137
 IR Inten    --     10.3544                11.5957                13.9495

                     10                     11                     12
                      A                      A                      A
 Frequencies --    293.1644               334.5654               422.4533
 Red. masses --      6.5252                 2.9069                 3.9132
 Frc consts  --      0.3304                 0.1917                 0.4115
 IR Inten    --     30.2240                 9.1282                 4.3724

                     13                     14                     15
                      A                      A                      A
 Frequencies --    525.4849               556.9842               599.0694
 Red. masses --      1.0926                 6.1237                 6.0054
 Frc consts  --      0.1778                 1.1193                 1.2698
 IR Inten    --    193.5184                 9.4654                41.2924

                     16                     17                     18
                      A                      A                      A
 Frequencies --    773.8857               798.4180               894.0357
 Red. masses --     10.0231                 1.2147                 3.0943
 Frc consts  --      3.5368                 0.4562                 1.4572
 IR Inten    --     17.8795                 4.3258                 7.2711

                     19                     20                     21
                      A                      A                      A
 Frequencies --    930.1954              1076.0108              1127.4880
 Red. masses --      2.8811                 4.1694                 2.0845
 Frc consts  --      1.4688                 2.8442                 1.5613
 IR Inten    --      2.1820                24.6853                27.0398

                     22                     23                     24
                      A                      A                      A
 Frequencies --   1202.6125              1284.9893              1341.1037
 Red. masses --      1.7766                 4.1118                 1.1454
 Frc consts  --      1.5139                 4.0002                 1.2137
 IR Inten    --      5.9340               808.0112                26.4425

                     25                     26                     27
                      A                      A                      A
 Frequencies --   1347.2515              1401.2975              1430.8313
 Red. masses --      1.2166                 1.2739                 1.3785
 Frc consts  --      1.3011                 1.4738                 1.6628
 IR Inten    --    107.8543                35.2759                 9.8823

                     28                     29                     30
                      A                      A                      A
 Frequencies --   1492.6915              1501.5755              1514.0002
 Red. masses --      1.0412                 1.0674                 1.0783
 Frc consts  --      1.3669                 1.4179                 1.4563
 IR Inten    --     11.5803                 4.4731                19.4050

                     31                     32                     33
                      A                      A                      A
 Frequencies --   1838.1093              2063.8155              2290.8137
 Red. masses --     12.0821                 1.2830                 4.4751
 Frc consts  --     24.0510                 3.2197                13.8368
 IR Inten    --    332.4796               781.1503                28.5450

                     34                     35                     36
                      A                      A                      A
 Frequencies --   3076.0916              3108.4906              3151.6755
 Red. masses --      1.0354                 1.0608                 1.1014
 Frc consts  --      5.7721                 6.0394                 6.4460
 IR Inten    --     10.2774                18.3008                15.3169

                     37                     38                     39
                      A                      A                      A
 Frequencies --   3155.4611              3176.2645              3851.1844
 Red. masses --      1.1049                 1.1074                 1.0667
 Frc consts  --      6.4816                 6.5824                 9.3215
 IR Inten    --      1.9649                14.7047               156.4583

 - Thermochemistry -
 -------------------
 Temperature   298.150 Kelvin.  Pressure   1.00000 Atm.
 Atom     1 has atomic number  8 and mass  15.99491

 Molecular mass:   115.03952 amu.
 Principal axes and moments of inertia in atomic units:
                           1         2         3
     Eigenvalues --   287.113702620.382002733.00566
           X            0.99993   0.00832  -0.00849
           Y           -0.00840   0.99992  -0.00946
           Z            0.00841   0.00953   0.99992
 This molecule is an asymmetric top.
 Rotational symmetry number  1.
 Rotational temperatures (Kelvin)      0.30167     0.03305     0.03169
 Rotational constants (GHZ):           6.28581     0.68873     0.66035
    1 imaginary frequencies ignored.
 Zero-point vibrational energy     284464.2 (Joules/Mol)
                                   67.98858 (Kcal/Mol)
 Warning -- explicit consideration of  14 degrees of freedom as
           vibrations may cause significant error
 Vibrational temperatures:     47.37    55.13   108.75   164.86   180.39
          (Kelvin)            210.83   317.03   352.54   421.80   481.36
                              607.82   756.06   801.38   861.93  1113.45
                             1148.75  1286.32  1338.34  1548.14  1622.20
                             1730.29  1848.81  1929.55  1938.39  2016.15
                             2058.65  2147.65  2160.43  2178.31  2644.63
                             2969.37  3295.97  4425.81  4472.42  4534.56
                             4540.00  4569.94  5541.00

 Zero-point correction=                           0.108347 (Hartree/Particle)
 Thermal correction to Energy=                    0.118802
 Thermal correction to Enthalpy=                  0.119746
 Thermal correction to Gibbs Free Energy=         0.070127
 Sum of electronic and zero-point Energies=           -420.066107
 Sum of electronic and thermal Energies=              -420.055651
 Sum of electronic and thermal Enthalpies=            -420.054707
 Sum of electronic and thermal Free Energies=         -420.104327

                     E (Thermal)             CV                S
                      KCal/Mol        Cal/Mol-Kelvin    Cal/Mol-Kelvin
 Total                   74.549             33.258            104.433
 Electronic               0.000              0.000              1.377
 Translational            0.889              2.981             40.136
 Rotational               0.889              2.981             29.110
 Vibrational             72.772             27.297             33.810
 Vibration     1          0.594              1.983              5.645
 Vibration     2          0.594              1.982              5.344
 Vibration     3          0.599              1.965              4.002
 Vibration     4          0.608              1.937              3.190
 Vibration     5          0.610              1.928              3.016
 Vibration     6          0.617              1.906              2.717
 Vibration     7          0.647              1.810              1.956
 Vibration     8          0.660              1.771              1.766
 Vibration     9          0.688              1.686              1.456
 Vibration    10          0.716              1.606              1.238
 Vibration    11          0.785              1.421              0.884
 Vibration    12          0.880              1.194              0.597
 Vibration    13          0.912              1.124              0.530
 Vibration    14          0.957              1.034              0.451

 1\1\GINC-AJ\Freq\UM062X\6-311++G(d,p)\C5H7O3(2)\AAYUSH\23-Jun-2025\0\\
 # freq 6-311++g(d,p) m062x\\Title Card Required\\0,2\O,4.558051,-0.253
 68,0.322087\H,4.59876,0.643073,-0.038477\C,2.258692,-0.310087,-0.07592
 8\H,3.674656,-0.651378,-0.067115\C,1.100735,0.027683,-0.105315\C,-0.30
 5785,0.403132,-0.189484\O,-0.691401,1.531818,-0.062532\O,-1.073853,-0.
 65712,-0.424343\C,-2.492804,-0.406735,-0.509576\C,-3.107338,-0.284428,
 0.870708\H,-2.879528,-1.269469,-1.048698\H,-2.652829,0.495305,-1.10120
 8\H,-4.189231,-0.17089,0.779329\H,-2.902063,-1.179732,1.459265\H,-2.71

 Normal termination of Gaussian 16 at Mon Jun 23 00:33:44 2025.
