 Gaussian 16, Revision A.03,
 Gaussian 16:  ES64L-G16RevA.03 25-Dec-2016

 --------------------------
 # ccsd(t)/6-311++g(d,p) sp
 --------------------------

 -------------------
 Title Card Required
 -------------------
 Symbolic Z-matrix:
 Charge =  0 Multiplicity = 2

                         Standard orientation:
 ---------------------------------------------------------------------
 Center     Atomic      Atomic             Coordinates (Angstroms)
 Number     Number       Type             X           Y           Z
 ---------------------------------------------------------------------
      1          8           0        4.557919   -0.254382    0.321609
      2          1           0        4.600314    0.643902   -0.036507
      3          6           0        2.259857   -0.310603   -0.076174
      4          1           0        3.650548   -0.644076   -0.060656
      5          6           0        1.101671    0.027048   -0.105520
      6          6           0       -0.305220    0.403100   -0.189433
      7          8           0       -0.691011    1.531787   -0.062615
      8          8           0       -1.073671   -0.657062   -0.424395
      9          6           0       -2.492601   -0.406513   -0.509637
     10          6           0       -3.107179   -0.284154    0.870635
     11          1           0       -2.879428   -1.269208   -1.048763
     12          1           0       -2.652557    0.495546   -1.101259
     13          1           0       -4.189063   -0.170497    0.779250
     14          1           0       -2.902002   -1.179481    1.459193
     15          1           0       -2.712874    0.587793    1.392720
 ---------------------------------------------------------------------

 SCF Done:  E(UHF) =  -417.934566612     A.U. after   34 cycles
 E2 =    -0.1269193409D+01 EUMP2 =    -0.41920376002114D+03
 CCSD(T)= -0.41932296172D+03

 The electronic state is 2-A.
 Alpha  occ. eigenvalues --  -20.63246 -20.61927 -20.56550 -11.42357 -11.31042
 Alpha  occ. eigenvalues --  -11.30213 -11.25886 -11.22986  -1.48784  -1.41596
 Alpha  occ. eigenvalues --   -1.38357  -1.08898  -1.05104  -0.93393  -0.84563
 Alpha  occ. eigenvalues --   -0.80455  -0.76480  -0.69993  -0.68223  -0.66868
 Alpha  occ. eigenvalues --   -0.63880  -0.58857  -0.57394  -0.56584  -0.54998
 Alpha  occ. eigenvalues --   -0.54482  -0.51029  -0.48587  -0.46893  -0.45492
 Alpha  occ. eigenvalues --   -0.45286
 Alpha virt. eigenvalues --    0.03986   0.04656   0.05730   0.06421   0.07284
 Alpha virt. eigenvalues --    0.08100   0.08587   0.09159   0.11244   0.12300
 Alpha virt. eigenvalues --    0.13155   0.13421   0.14461   0.15740   0.16005

  Beta  occ. eigenvalues --  -20.61945 -20.60989 -20.57139 -11.41905 -11.30221
  Beta  occ. eigenvalues --  -11.27620 -11.26119 -11.22987  -1.49077  -1.39306
  Beta  occ. eigenvalues --   -1.33927  -1.08501  -1.03793  -0.91839  -0.83240
  Beta  occ. eigenvalues --   -0.76630  -0.72685  -0.70561  -0.67392  -0.64143
  Beta  occ. eigenvalues --   -0.59305  -0.58714  -0.56174  -0.54698  -0.52984
  Beta  occ. eigenvalues --   -0.51192  -0.49430  -0.47977  -0.43811  -0.43372
  Beta virt. eigenvalues --   -0.00762   0.04075   0.05667   0.05784   0.06430
  Beta virt. eigenvalues --    0.07349   0.08180   0.09139   0.09937   0.11676
  Beta virt. eigenvalues --    0.12599   0.13351   0.13722   0.14845   0.15524

 Mulliken charges and spin densities:
               1          2
     1  O   -0.324910   0.439027
     2  H    0.271481  -0.020498
     3  C   -0.600510   1.743784
     4  H    0.389781  -0.149120
     5  C    1.319641  -1.040314
     6  C   -0.968279   0.145036
     7  O   -0.275154  -0.121493
     8  O   -0.086315   0.003189
     9  C   -0.165741   0.002234
    10  C   -0.359859  -0.001134
    11  H    0.168644  -0.000239
    12  H    0.176083  -0.000086
    13  H    0.136401  -0.000121
    14  H    0.145471  -0.000117
    15  H    0.173266  -0.000148
 Sum of Mulliken charges =  -0.00000   1.00000

 Dipole moment (field-independent basis, Debye):
    X=             -1.2461    Y=             -0.5578    Z=             -1.1136  Tot=              1.7618
 Quadrupole moment (field-independent basis, Debye-Ang):
   XX=            -39.8497   YY=            -52.3761   ZZ=            -47.8908
   XY=              7.9294   XZ=             -3.5509   YZ=             -0.3333

 69\PMP3-0=-419.2495031\MP4SDQ=-419.2576805\CCSD=-419.2674378\CCSD(T)=-
 Normal termination of Gaussian 16 at Wed Jul  2 14:53:36 2025.
