 Gaussian 16, Revision A.03,
 Gaussian 16:  ES64L-G16RevA.03 25-Dec-2016

 --------------------------
 # freq 6-311++g(d,p) m062x
 --------------------------

 -------------------
 Title Card Required
 -------------------
 Symbolic Z-matrix:
 Charge =  0 Multiplicity = 2

                         Standard orientation:
 ---------------------------------------------------------------------
 Center     Atomic      Atomic             Coordinates (Angstroms)
 Number     Number       Type             X           Y           Z
 ---------------------------------------------------------------------
      1          8           0        4.558901   -0.256494    0.320068
      2          1           0        4.605858    0.646989   -0.030983
      3          6           0        2.264035   -0.312422   -0.077190
      4          1           0        3.549029   -0.623674   -0.046550
      5          6           0        1.105021    0.024877   -0.106246
      6          6           0       -0.303106    0.403106   -0.189078
      7          8           0       -0.689584    1.531772   -0.062439
      8          8           0       -1.072983   -0.656750   -0.424552
      9          6           0       -2.491801   -0.405611   -0.509623
     10          6           0       -3.106394   -0.283343    0.870700
     11          1           0       -2.879081   -1.268060   -1.048882
     12          1           0       -2.651608    0.496638   -1.101002
     13          1           0       -4.188261   -0.169251    0.779444
     14          1           0       -2.901482   -1.178860    1.459075
     15          1           0       -2.711659    0.588339    1.392902
 ---------------------------------------------------------------------

 SCF Done:  E(UM062X) =  -420.175433178     A.U. after   22 cycles

 The electronic state is 2-A.
 Alpha  occ. eigenvalues --  -19.70345 -19.68688 -19.63610 -10.71095 -10.60909
 Alpha  occ. eigenvalues --  -10.59236 -10.57451 -10.54050  -1.26073  -1.18872
 Alpha  occ. eigenvalues --   -1.16794  -0.90772  -0.87317  -0.78312  -0.71061
 Alpha  occ. eigenvalues --   -0.67448  -0.64402  -0.58824  -0.57487  -0.56755
 Alpha  occ. eigenvalues --   -0.54044  -0.49694  -0.47085  -0.46716  -0.45720
 Alpha  occ. eigenvalues --   -0.43332  -0.42277  -0.39806  -0.38899  -0.37706
 Alpha  occ. eigenvalues --   -0.36648
 Alpha virt. eigenvalues --   -0.01927  -0.00537   0.00064   0.01728   0.02322
 Alpha virt. eigenvalues --    0.02705   0.03742   0.05092   0.05386   0.06315
 Alpha virt. eigenvalues --    0.06967   0.07842   0.08233   0.08752   0.10220

  Beta  occ. eigenvalues --  -19.69225 -19.68695 -19.63604 -10.71081 -10.60910
  Beta  occ. eigenvalues --  -10.58421 -10.57356 -10.54050  -1.26073  -1.16787
  Beta  occ. eigenvalues --   -1.14527  -0.90368  -0.86495  -0.77878  -0.70194
  Beta  occ. eigenvalues --   -0.64651  -0.62893  -0.58821  -0.56816  -0.54195
  Beta  occ. eigenvalues --   -0.51985  -0.49671  -0.47033  -0.45668  -0.43571
  Beta  occ. eigenvalues --   -0.42335  -0.39469  -0.38895  -0.36679  -0.36059
  Beta virt. eigenvalues --   -0.16561  -0.01313  -0.00235   0.00243   0.01741
  Beta virt. eigenvalues --    0.02349   0.02866   0.03893   0.05384   0.05663
  Beta virt. eigenvalues --    0.06577   0.07052   0.07861   0.08321   0.08807

 Mulliken charges and spin densities:
               1          2
     1  O   -0.277839   0.563753
     2  H    0.269245  -0.013643
     3  C   -0.653356   0.495672
     4  H    0.433405  -0.036015
     5  C    1.118178   0.049244
     6  C   -0.914591  -0.059167
     7  O   -0.209749   0.001300
     8  O    0.010578   0.000106
     9  C   -0.281372  -0.001288
    10  C   -0.403095   0.000244
    11  H    0.197465  -0.000123
    12  H    0.193631   0.000100
    13  H    0.165666  -0.000015
    14  H    0.167386  -0.000007
    15  H    0.184448  -0.000160
 Sum of Mulliken charges =  -0.00000   1.00000

 Dipole moment (field-independent basis, Debye):
    X=             -0.8768    Y=             -0.2964    Z=             -0.8709  Tot=              1.2709
 Quadrupole moment (field-independent basis, Debye-Ang):
   XX=            -35.6278   YY=            -52.1553   ZZ=            -48.0980
   XY=              8.0357   XZ=             -2.8338   YZ=             -0.3860

  Exact polarizability: 137.506  -6.994  60.926   2.843   0.498  50.522
 Approx polarizability: 122.865 -12.697  79.597   3.899   1.473  57.675

 ******    2 imaginary frequencies (negative Signs) ******

                      1                      2                      3
                      A                      A                      A
 Frequencies --  -1521.3422               -44.1368                49.0706
 Red. masses --      1.0322                 3.1095                 6.8334
 Frc consts  --      1.4075                 0.0036                 0.0097
 IR Inten    --    613.5574                16.2996                 1.5904

                      4                      5                      6
                      A                      A                      A
 Frequencies --     80.0695               116.4946               154.9176
 Red. masses --      3.1722                 3.3678                 3.5242
 Frc consts  --      0.0120                 0.0269                 0.0498
 IR Inten    --      3.8246                 1.4884                16.3608

                      7                      8                      9
                      A                      A                      A
 Frequencies --    181.4791               224.9806               272.0630
 Red. masses --      1.5893                 1.2834                 4.3451
 Frc consts  --      0.0308                 0.0383                 0.1895
 IR Inten    --     76.3860                 2.7015                13.6047

                     10                     11                     12
                      A                      A                      A
 Frequencies --    335.8758               368.9821               426.7797
 Red. masses --      2.8922                 7.8434                 3.7423
 Frc consts  --      0.1922                 0.6292                 0.4016
 IR Inten    --      9.5705                 2.6511                 2.0687

                     13                     14                     15
                      A                      A                      A
 Frequencies --    565.9312               614.4888               651.4484
 Red. masses --      5.5918                 5.3665                 1.1537
 Frc consts  --      1.0552                 1.1939                 0.2885
 IR Inten    --     10.8710                15.9927               175.7352

                     16                     17                     18
                      A                      A                      A
 Frequencies --    778.4554               798.0962               893.2628
 Red. masses --      9.1537                 1.2314                 3.1384
 Frc consts  --      3.2682                 0.4621                 1.4754
 IR Inten    --     21.4197                 2.9783                 9.5578

                     19                     20                     21
                      A                      A                      A
 Frequencies --    922.6409              1054.2648              1086.9627
 Red. masses --      2.4817                 1.6524                 2.5707
 Frc consts  --      1.2447                 1.0821                 1.7895
 IR Inten    --      4.6320                50.0588                33.0282

                     22                     23                     24
                      A                      A                      A
 Frequencies --   1127.7945              1202.7360              1285.5865
 Red. masses --      2.0920                 1.7783                 4.2154
 Frc consts  --      1.5678                 1.5156                 4.1048
 IR Inten    --     32.3830                 5.2500               764.7972

                     25                     26                     27
                      A                      A                      A
 Frequencies --   1346.7882              1401.0013              1430.4675
 Red. masses --      1.2090                 1.2727                 1.3752
 Frc consts  --      1.2921                 1.4719                 1.6580
 IR Inten    --    102.5366                31.0264                 8.8338

                     28                     29                     30
                      A                      A                      A
 Frequencies --   1486.8866              1492.6930              1501.5410
 Red. masses --      1.0739                 1.0423                 1.0679
 Frc consts  --      1.3989                 1.3683                 1.4186
 IR Inten    --    275.4305                 8.0571                 7.8081

                     31                     32                     33
                      A                      A                      A
 Frequencies --   1513.9571              1837.4342              2285.3828
 Red. masses --      1.0781                12.1108                10.7293
 Frc consts  --      1.4559                24.0906                33.0170
 IR Inten    --     25.0765               357.0790                41.1322

                     34                     35                     36
                      A                      A                      A
 Frequencies --   3075.9430              3108.2919              3151.4083
 Red. masses --      1.0354                 1.0608                 1.1014
 Frc consts  --      5.7716                 6.0382                 6.4449
 IR Inten    --     10.4600                18.5972                15.4498

                     37                     38                     39
                      A                      A                      A
 Frequencies --   3155.2602              3175.9826              3815.5119
 Red. masses --      1.1049                 1.1074                 1.0666
 Frc consts  --      6.4808                 6.5812                 9.1490
 IR Inten    --      2.0668                14.8829               136.7442

 - Thermochemistry -
 -------------------
 Temperature   298.150 Kelvin.  Pressure   1.00000 Atm.
 Atom     1 has atomic number  8 and mass  15.99491

 Molecular mass:   115.03952 amu.
 Principal axes and moments of inertia in atomic units:
                           1         2         3
     Eigenvalues --   286.957352618.241372730.83167
           X            0.99993   0.00861  -0.00837
           Y           -0.00869   0.99992  -0.00961
           Z            0.00829   0.00968   0.99992
 This molecule is an asymmetric top.
 Rotational symmetry number  1.
 Rotational temperatures (Kelvin)      0.30184     0.03308     0.03172
 Rotational constants (GHZ):           6.28923     0.68930     0.66088
    2 imaginary frequencies ignored.
 Zero-point vibrational energy     280948.6 (Joules/Mol)
                                   67.14832 (Kcal/Mol)
 Warning -- explicit consideration of  12 degrees of freedom as
           vibrations may cause significant error
 Vibrational temperatures:     70.60   115.20   167.61   222.89   261.11
          (Kelvin)            323.70   391.44   483.25   530.88   614.04
                              814.25   884.11   937.29  1120.02  1148.28
                             1285.21  1327.47  1516.85  1563.90  1622.64
                             1730.47  1849.67  1937.73  2015.73  2058.12
                             2139.30  2147.65  2160.38  2178.25  2643.66
                             3288.16  4425.60  4472.14  4534.17  4539.72
                             4569.53  5489.67

 Zero-point correction=                           0.107008 (Hartree/Particle)
 Thermal correction to Energy=                    0.116246
 Thermal correction to Enthalpy=                  0.117190
 Thermal correction to Gibbs Free Energy=         0.071331
 Sum of electronic and zero-point Energies=           -420.068426
 Sum of electronic and thermal Energies=              -420.059187
 Sum of electronic and thermal Enthalpies=            -420.058243
 Sum of electronic and thermal Free Energies=         -420.104102

                     E (Thermal)             CV                S
                      KCal/Mol        Cal/Mol-Kelvin    Cal/Mol-Kelvin
 Total                   72.945             30.914             96.518
 Electronic               0.000              0.000              1.377
 Translational            0.889              2.981             40.136
 Rotational               0.889              2.981             29.108
 Vibrational             71.168             24.952             25.897
 Vibration     1          0.595              1.978              4.854
 Vibration     2          0.600              1.963              3.889
 Vibration     3          0.608              1.936              3.158
 Vibration     4          0.620              1.897              2.611
 Vibration     5          0.630              1.865              2.313
 Vibration     6          0.650              1.803              1.919
 Vibration     7          0.675              1.725              1.583
 Vibration     8          0.717              1.604              1.232
 Vibration     9          0.741              1.536              1.084
 Vibration    10          0.788              1.412              0.869
 Vibration    11          0.922              1.105              0.512
 Vibration    12          0.974              1.001              0.425

 1\1\GINC-AJ\Freq\UM062X\6-311++G(d,p)\C5H7O3(2)\AAYUSH\23-Jun-2025\0\\
 # freq 6-311++g(d,p) m062x\\Title Card Required\\0,2\O,4.558901,-0.256
 494,0.320068\H,4.605858,0.646989,-0.030983\C,2.264035,-0.312422,-0.077
 19\H,3.549029,-0.623674,-0.04655\C,1.105021,0.024877,-0.106246\C,-0.30
 3106,0.403106,-0.189078\O,-0.689584,1.531772,-0.062439\O,-1.072983,-0.
 65675,-0.424552\C,-2.491801,-0.405611,-0.509623\C,-3.106394,-0.283343,
 0.8707\H,-2.879081,-1.26806,-1.048882\H,-2.651608,0.496638,-1.101002\H
 ,-4.188261,-0.169251,0.779444\H,-2.901482,-1.17886,1.459075\H,-2.71165

 Normal termination of Gaussian 16 at Mon Jun 23 00:18:33 2025.
