 Gaussian 16, Revision A.03,
 Gaussian 16:  ES64L-G16RevA.03 25-Dec-2016

 --------------------------
 # ccsd(t)/6-311++g(d,p) sp
 --------------------------

 -------------------
 Title Card Required
 -------------------
 Symbolic Z-matrix:
 Charge =  0 Multiplicity = 2

                         Standard orientation:
 ---------------------------------------------------------------------
 Center     Atomic      Atomic             Coordinates (Angstroms)
 Number     Number       Type             X           Y           Z
 ---------------------------------------------------------------------
      1          8           0        4.564090   -0.256626    0.320871
      2          1           0        4.611609    0.650114   -0.027930
      3          6           0        2.266784   -0.314002   -0.077565
      4          1           0        3.417580   -0.624677   -0.055054
      5          6           0        1.108089    0.023032   -0.106630
      6          6           0       -0.300822    0.403175   -0.188978
      7          8           0       -0.688159    1.531920   -0.063594
      8          8           0       -1.072108   -0.656781   -0.423937
      9          6           0       -2.490733   -0.405214   -0.509146
     10          6           0       -3.105413   -0.281707    0.871085
     11          1           0       -2.878468   -1.267952   -1.047714
     12          1           0       -2.650450    0.496657   -1.101144
     13          1           0       -4.187276   -0.167351    0.779818
     14          1           0       -2.900720   -1.176836    1.460154
     15          1           0       -2.710294    0.590237    1.392551
 ---------------------------------------------------------------------

 SCF Done:  E(UHF) =  -417.954082928     A.U. after   41 cycles
 E2 =    -0.1269651078D+01 EUMP2 =    -0.41922373400595D+03
 CCSD(T)= -0.41933242810D+03

 The electronic state is 2-A.
 Alpha  occ. eigenvalues --  -20.68007 -20.61166 -20.55645 -11.41368 -11.29641
 Alpha  occ. eigenvalues --  -11.26630 -11.24522 -11.22507  -1.47943  -1.45334
 Alpha  occ. eigenvalues --   -1.37639  -1.06962  -1.03781  -0.92386  -0.84668
 Alpha  occ. eigenvalues --   -0.81090  -0.75697  -0.72706  -0.69237  -0.66149
 Alpha  occ. eigenvalues --   -0.63389  -0.61846  -0.58388  -0.57355  -0.54540
 Alpha  occ. eigenvalues --   -0.53953  -0.50461  -0.47669  -0.46106  -0.42189
 Alpha  occ. eigenvalues --   -0.41978
 Alpha virt. eigenvalues --    0.03779   0.04424   0.06032   0.06546   0.07173
 Alpha virt. eigenvalues --    0.08351   0.09403   0.09586   0.11742   0.12704
 Alpha virt. eigenvalues --    0.13680   0.13910   0.14910   0.15613   0.16560

  Beta  occ. eigenvalues --  -20.64166 -20.61179 -20.55959 -11.41139 -11.29645
  Beta  occ. eigenvalues --  -11.25522 -11.24467 -11.22508  -1.48100  -1.38149
  Beta  occ. eigenvalues --   -1.31198  -1.07097  -1.03042  -0.91504  -0.82901
  Beta  occ. eigenvalues --   -0.76047  -0.73618  -0.69534  -0.66439  -0.64209
  Beta  occ. eigenvalues --   -0.62737  -0.58434  -0.55359  -0.55156  -0.54059
  Beta  occ. eigenvalues --   -0.50542  -0.48220  -0.46918  -0.41558  -0.41284
  Beta virt. eigenvalues --    0.01608   0.04357   0.05656   0.06029   0.06576
  Beta virt. eigenvalues --    0.07226   0.08419   0.09425   0.09952   0.12089
  Beta virt. eigenvalues --    0.12881   0.13732   0.14168   0.15137   0.15741

 Mulliken charges and spin densities:
               1          2
     1  O   -0.175862   0.880662
     2  H    0.276435  -0.035888
     3  C   -0.701985   0.802825
     4  H    0.404326  -0.099784
     5  C    1.291243  -0.567527
     6  C   -0.990232   0.081886
     7  O   -0.288129  -0.064424
     8  O   -0.085349   0.001920
     9  C   -0.163696   0.001097
    10  C   -0.359512  -0.000390
    11  H    0.166264  -0.000122
    12  H    0.174854  -0.000014
    13  H    0.133876  -0.000062
    14  H    0.144409  -0.000093
    15  H    0.173357  -0.000086
 Sum of Mulliken charges =  -0.00000   1.00000

 Dipole moment (field-independent basis, Debye):
    X=              0.6053    Y=             -0.4410    Z=             -0.7739  Tot=              1.0769
 Quadrupole moment (field-independent basis, Debye-Ang):
   XX=            -28.1105   YY=            -52.9783   ZZ=            -48.1349
   XY=              8.1291   XZ=             -2.1030   YZ=             -0.4725

 46\PMP3-0=-419.2565697\MP4SDQ=-419.2756021\CCSD=-419.2780986\CCSD(T)=-
 Normal termination of Gaussian 16 at Wed Jul  2 23:00:48 2025.
