 Gaussian 16, Revision A.03,
 Gaussian 16:  ES64L-G16RevA.03 25-Dec-2016

 -------------------
 # freq 6-31+g m062x
 -------------------

 -------------------
 Title Card Required
 -------------------
 Symbolic Z-matrix:
 Charge =  0 Multiplicity = 2

                         Standard orientation:
 ---------------------------------------------------------------------
 Center     Atomic      Atomic             Coordinates (Angstroms)
 Number     Number       Type             X           Y           Z
 ---------------------------------------------------------------------
      1          8           0        4.562802   -0.256740    0.320594
      2          1           0        4.610391    0.649543   -0.028446
      3          6           0        2.266521   -0.313738   -0.077507
      4          1           0        3.443636   -0.622911   -0.052215
      5          6           0        1.107532    0.023365   -0.106567
      6          6           0       -0.301270    0.403153   -0.188984
      7          8           0       -0.688423    1.531884   -0.063291
      8          8           0       -1.072283   -0.656756   -0.424104
      9          6           0       -2.490946   -0.405258   -0.509271
     10          6           0       -3.105607   -0.282068    0.870985
     11          1           0       -2.878596   -1.267907   -1.048023
     12          1           0       -2.650674    0.496721   -1.101097
     13          1           0       -4.187471   -0.167751    0.779727
     14          1           0       -2.900878   -1.177308    1.459867
     15          1           0       -2.710559    0.589792    1.392645
 ---------------------------------------------------------------------

 SCF Done:  E(UM062X) =  -419.929865705     A.U. after   24 cycles

 The electronic state is 2-A.
 Alpha  occ. eigenvalues --  -19.74043 -19.70854 -19.66477 -10.73170 -10.61770
 Alpha  occ. eigenvalues --  -10.59571 -10.58677 -10.54767  -1.28191  -1.20384
 Alpha  occ. eigenvalues --   -1.18816  -0.91154  -0.87745  -0.78674  -0.71664
 Alpha  occ. eigenvalues --   -0.67805  -0.64504  -0.58611  -0.58154  -0.56932
 Alpha  occ. eigenvalues --   -0.54320  -0.49736  -0.47607  -0.47110  -0.45643
 Alpha  occ. eigenvalues --   -0.44317  -0.42197  -0.39531  -0.38512  -0.37493
 Alpha  occ. eigenvalues --   -0.36590
 Alpha virt. eigenvalues --   -0.01779   0.01158   0.02205   0.03482   0.04222
 Alpha virt. eigenvalues --    0.04768   0.05045   0.06612   0.07540   0.08445
 Alpha virt. eigenvalues --    0.08889   0.09091   0.09395   0.10736   0.12480

  Beta  occ. eigenvalues --  -19.72610 -19.70859 -19.66476 -10.73161 -10.61770
  Beta  occ. eigenvalues --  -10.59031 -10.58604 -10.54767  -1.28192  -1.18818
  Beta  occ. eigenvalues --   -1.14900  -0.90885  -0.87197  -0.78395  -0.70868
  Beta  occ. eigenvalues --   -0.64826  -0.63340  -0.58615  -0.56959  -0.54479
  Beta  occ. eigenvalues --   -0.52633  -0.49720  -0.47116  -0.45542  -0.43682
  Beta  occ. eigenvalues --   -0.42221  -0.39282  -0.38517  -0.36819  -0.36267
  Beta virt. eigenvalues --   -0.15613  -0.01375   0.01634   0.02258   0.03498
  Beta virt. eigenvalues --    0.04676   0.04860   0.05082   0.06716   0.07689
  Beta virt. eigenvalues --    0.08496   0.08993   0.09112   0.09513   0.10947

 Mulliken charges and spin densities:
               1          2
     1  O   -0.422963   0.764240
     2  H    0.417137  -0.026856
     3  C    1.072491   0.137637
     4  H    0.486926  -0.046988
     5  C   -0.311064   0.142799
     6  C   -0.990161   0.029983
     7  O   -0.352643  -0.000385
     8  O   -0.208861  -0.000325
     9  C   -0.250416   0.000127
    10  C   -0.560970  -0.000155
    11  H    0.221263  -0.000017
    12  H    0.232932  -0.000020
    13  H    0.208692  -0.000043
    14  H    0.221175  -0.000002
    15  H    0.236461   0.000006
 Sum of Mulliken charges =  -0.00000   1.00000

 Dipole moment (field-independent basis, Debye):
    X=             -0.5100    Y=             -0.0162    Z=             -0.9555  Tot=              1.0832
 Quadrupole moment (field-independent basis, Debye-Ang):
   XX=            -33.6595   YY=            -53.5480   ZZ=            -48.4428
   XY=              9.2021   XZ=             -3.2459   YZ=             -0.4372

  Exact polarizability: 123.720  -5.971  58.387   2.892   0.396  45.863
 Approx polarizability: 109.993 -12.610  74.108   3.740   1.686  47.421

 ******    5 imaginary frequencies (negative Signs) ******

                      1                      2                      3
                      A                      A                      A
 Frequencies --   -965.3832              -470.7944              -194.9084
 Red. masses --      1.1867                 1.0531                 3.2669
 Frc consts  --      0.6516                 0.1375                 0.0731
 IR Inten    --    238.9100               132.9816                43.8113

                      4                      5                      6
                      A                      A                      A
 Frequencies --   -145.2550               -31.5141                45.4297
 Red. masses --      7.3452                 3.0242                 3.8741
 Frc consts  --      0.0913                 0.0018                 0.0047
 IR Inten    --      9.1761                 0.2028                 6.2693

                      7                      8                      9
                      A                      A                      A
 Frequencies --    110.6497               186.0712               267.3032
 Red. masses --      3.3159                 1.2949                 4.0651
 Frc consts  --      0.0239                 0.0264                 0.1711
 IR Inten    --      4.9982                 1.1293                13.0131

                     10                     11                     12
                      A                      A                      A
 Frequencies --    317.1582               419.1498               456.6038
 Red. masses --      3.1718                 4.3381                 3.6390
 Frc consts  --      0.1880                 0.4490                 0.4470
 IR Inten    --      7.9479                 4.2620                10.7154

                     13                     14                     15
                      A                      A                      A
 Frequencies --    564.7440               640.0970               708.6378
 Red. masses --      2.3735                 4.1024                 2.7057
 Frc consts  --      0.4460                 0.9903                 0.8005
 IR Inten    --     86.9392                29.2091               156.5838

                     16                     17                     18
                      A                      A                      A
 Frequencies --    799.7666               826.3907               892.2646
 Red. masses --      2.3193                 2.0047                 2.6832
 Frc consts  --      0.8740                 0.8066                 1.2586
 IR Inten    --     41.0927                17.2759                27.9865

                     19                     20                     21
                      A                      A                      A
 Frequencies --    924.9305              1007.6847              1115.7983
 Red. masses --      2.0569                 1.8555                 3.9539
 Frc consts  --      1.0368                 1.1101                 2.9004
 IR Inten    --     30.1277                67.2354                10.8050

                     22                     23                     24
                      A                      A                      A
 Frequencies --   1157.7326              1227.0879              1325.5326
 Red. masses --      2.0972                 1.7591                 2.1245
 Frc consts  --      1.6562                 1.5606                 2.1993
 IR Inten    --     30.2093                 2.5554               410.2806

                     25                     26                     27
                      A                      A                      A
 Frequencies --   1369.7150              1440.5234              1455.1762
 Red. masses --      1.6130                 1.3100                 1.2398
 Frc consts  --      1.7830                 1.6017                 1.5468
 IR Inten    --    284.1961                13.0358                37.8595

                     28                     29                     30
                      A                      A                      A
 Frequencies --   1466.2103              1528.0261              1535.8224
 Red. masses --      1.1984                 1.0423                 1.0778
 Frc consts  --      1.5179                 1.4338                 1.4979
 IR Inten    --    208.4985                14.2576                 9.4379

                     31                     32                     33
                      A                      A                      A
 Frequencies --   1544.8089              1905.3517              2394.7878
 Red. masses --      1.0666                12.3521                10.0933
 Frc consts  --      1.4996                26.4205                34.1048
 IR Inten    --     24.1143               327.6333                55.7062

                     34                     35                     36
                      A                      A                      A
 Frequencies --   3107.9054              3137.8585              3187.7097
 Red. masses --      1.0351                 1.0601                 1.1008
 Frc consts  --      5.8907                 6.1498                 6.5905
 IR Inten    --     13.6638                20.6557                12.8647

                     37                     38                     39
                      A                      A                      A
 Frequencies --   3190.8396              3211.7785              3804.0986
 Red. masses --      1.1022                 1.1052                 1.0657
 Frc consts  --      6.6116                 6.7173                 9.0867
 IR Inten    --      8.0324                17.6960                57.1291

 - Thermochemistry -
 -------------------
 Temperature   298.150 Kelvin.  Pressure   1.00000 Atm.
 Atom     1 has atomic number  8 and mass  15.99491

 Molecular mass:   115.03952 amu.
 Principal axes and moments of inertia in atomic units:
                           1         2         3
     Eigenvalues --   286.986052617.768602730.35498
           X            0.99993   0.00872  -0.00839
           Y           -0.00879   0.99992  -0.00937
           Z            0.00830   0.00945   0.99992
 This molecule is an asymmetric top.
 Rotational symmetry number  1.
 Rotational temperatures (Kelvin)      0.30181     0.03309     0.03172
 Rotational constants (GHZ):           6.28860     0.68942     0.66099
    5 imaginary frequencies ignored.
 Zero-point vibrational energy     282759.2 (Joules/Mol)
                                   67.58107 (Kcal/Mol)
 Warning -- explicit consideration of   8 degrees of freedom as
           vibrations may cause significant error
 Vibrational temperatures:     65.36   159.20   267.72   384.59   456.32
          (Kelvin)            603.06   656.95   812.54   920.96  1019.57
                             1150.69  1188.99  1283.77  1330.77  1449.83
                             1605.38  1665.72  1765.51  1907.15  1970.71
                             2072.59  2093.67  2109.55  2198.49  2209.71
                             2222.64  2741.38  3445.57  4471.58  4514.68
                             4586.40  4590.91  4621.03  5473.25

 Zero-point correction=                           0.107697 (Hartree/Particle)
 Thermal correction to Energy=                    0.114910
 Thermal correction to Enthalpy=                  0.115854
 Thermal correction to Gibbs Free Energy=         0.074053
 Sum of electronic and zero-point Energies=           -419.822168
 Sum of electronic and thermal Energies=              -419.814956
 Sum of electronic and thermal Enthalpies=            -419.814011
 Sum of electronic and thermal Free Energies=         -419.855812

                     E (Thermal)             CV                S
                      KCal/Mol        Cal/Mol-Kelvin    Cal/Mol-Kelvin
 Total                   72.107             24.788             87.977
 Electronic               0.000              0.000              1.377
 Translational            0.889              2.981             40.136
 Rotational               0.889              2.981             29.107
 Vibrational             70.330             18.826             17.357
 Vibration     1          0.595              1.979              5.007
 Vibration     2          0.606              1.941              3.257
 Vibration     3          0.632              1.859              2.267
 Vibration     4          0.672              1.733              1.614
 Vibration     5          0.704              1.641              1.325
 Vibration     6          0.782              1.429              0.895
 Vibration     7          0.815              1.346              0.776
 Vibration     8          0.921              1.108              0.514

 Normal termination of Gaussian 16 at Fri Jun 20 12:30:02 2025.
