 Gaussian 16, Revision A.03,
 Gaussian 16:  ES64L-G16RevA.03 25-Dec-2016

 --------------------------
 # ccsd(t)/6-311++g(d,p) sp
 --------------------------

 -------------------
 Title Card Required
 -------------------
 Symbolic Z-matrix:
 Charge =  0 Multiplicity = 2

                         Standard orientation:
 ---------------------------------------------------------------------
 Center     Atomic      Atomic             Coordinates (Angstroms)
 Number     Number       Type             X           Y           Z
 ---------------------------------------------------------------------
      1          8           0        4.559645   -0.256634    0.320619
      2          1           0        4.607003    0.647672   -0.029791
      3          6           0        2.264842   -0.312798   -0.077011
      4          1           0        3.522597   -0.622229   -0.046433
      5          6           0        1.105715    0.024447   -0.106227
      6          6           0       -0.302612    0.403090   -0.189121
      7          8           0       -0.689268    1.531786   -0.062850
      8          8           0       -1.072761   -0.656784   -0.424515
      9          6           0       -2.491531   -0.405552   -0.509781
     10          6           0       -3.106292   -0.282946    0.870450
     11          1           0       -2.878851   -1.268089   -1.048892
     12          1           0       -2.651249    0.496586   -1.101357
     13          1           0       -4.188147   -0.168796    0.779067
     14          1           0       -2.901495   -1.178352    1.459040
     15          1           0       -2.711528    0.588816    1.392494
 ---------------------------------------------------------------------

 SCF Done:  E(UHF) =  -417.939694060     A.U. after   40 cycles
 E2 =    -0.1271064134D+01 EUMP2 =    -0.41921075819474D+03
 CCSD(T)= -0.41932582269D+03

 The electronic state is 2-A.
 Alpha  occ. eigenvalues --  -20.67475 -20.61270 -20.55760 -11.41521 -11.29730
 Alpha  occ. eigenvalues --  -11.28062 -11.24550 -11.22586  -1.48064  -1.45137
 Alpha  occ. eigenvalues --   -1.37693  -1.07257  -1.04134  -0.92573  -0.84573
 Alpha  occ. eigenvalues --   -0.81371  -0.75844  -0.71894  -0.69324  -0.66242
 Alpha  occ. eigenvalues --   -0.63418  -0.60985  -0.58361  -0.56669  -0.54539
 Alpha  occ. eigenvalues --   -0.54013  -0.50541  -0.47718  -0.46088  -0.43166
 Alpha  occ. eigenvalues --   -0.42911
 Alpha virt. eigenvalues --    0.03900   0.04407   0.05980   0.06556   0.07196
 Alpha virt. eigenvalues --    0.08283   0.09329   0.09500   0.11617   0.12626
 Alpha virt. eigenvalues --    0.13589   0.13788   0.14776   0.15767   0.16427

  Beta  occ. eigenvalues --  -20.64099 -20.61288 -20.56209 -11.41187 -11.29735
  Beta  occ. eigenvalues --  -11.25933 -11.24702 -11.22587  -1.48290  -1.38420
  Beta  occ. eigenvalues --   -1.33002  -1.07369  -1.03083  -0.91378  -0.82746
  Beta  occ. eigenvalues --   -0.76066  -0.73823  -0.69757  -0.66631  -0.63676
  Beta  occ. eigenvalues --   -0.61093  -0.58618  -0.55461  -0.54681  -0.54168
  Beta  occ. eigenvalues --   -0.50657  -0.48496  -0.47204  -0.42071  -0.41697
  Beta virt. eigenvalues --    0.00163   0.04305   0.05329   0.05975   0.06586
  Beta virt. eigenvalues --    0.07273   0.08339   0.09372   0.10082   0.12001
  Beta virt. eigenvalues --    0.12871   0.13669   0.14111   0.15075   0.15682

 Mulliken charges and spin densities:
               1          2
     1  O   -0.211137   0.741967
     2  H    0.277815  -0.031586
     3  C   -0.686664   1.221669
     4  H    0.421941  -0.145607
     5  C    1.277346  -0.811398
     6  C   -0.978911   0.113872
     7  O   -0.284887  -0.091754
     8  O   -0.085644   0.002509
     9  C   -0.164119   0.001574
    10  C   -0.359532  -0.000712
    11  H    0.166691  -0.000185
    12  H    0.174960  -0.000029
    13  H    0.134310  -0.000098
    14  H    0.144560  -0.000112
    15  H    0.173272  -0.000109
 Sum of Mulliken charges =  -0.00000   1.00000

 Dipole moment (field-independent basis, Debye):
    X=              0.2756    Y=             -0.4552    Z=             -0.8339  Tot=              0.9892
 Quadrupole moment (field-independent basis, Debye-Ang):
   XX=            -30.3159   YY=            -52.8602   ZZ=            -48.0826
   XY=              8.1332   XZ=             -2.3363   YZ=             -0.4477

 Normal termination of Gaussian 16 at Sat Jun 28 13:56:32 2025.
