 Gaussian 16, Revision A.03,
 Gaussian 16:  ES64L-G16RevA.03 25-Dec-2016

 --------------------------
 # ccsd(t)/6-311++g(d,p) sp
 --------------------------

 -------------------
 Title Card Required
 -------------------
 Symbolic Z-matrix:
 Charge =  0 Multiplicity = 2

                         Standard orientation:
 ---------------------------------------------------------------------
 Center     Atomic      Atomic             Coordinates (Angstroms)
 Number     Number       Type             X           Y           Z
 ---------------------------------------------------------------------
      1          8           0        4.557788   -0.255080    0.321131
      2          1           0        4.601868    0.644735   -0.034536
      3          6           0        2.261022   -0.311117   -0.076420
      4          1           0        3.626442   -0.636766   -0.054197
      5          6           0        1.102606    0.026414   -0.105725
      6          6           0       -0.304656    0.403068   -0.189382
      7          8           0       -0.690622    1.531755   -0.062698
      8          8           0       -1.073488   -0.657004   -0.424447
      9          6           0       -2.492397   -0.406292   -0.509698
     10          6           0       -3.107021   -0.283882    0.870562
     11          1           0       -2.879326   -1.268949   -1.048828
     12          1           0       -2.652286    0.495786   -1.101310
     13          1           0       -4.188896   -0.170107    0.779171
     14          1           0       -2.901939   -1.179232    1.459121
     15          1           0       -2.712612    0.588018    1.392648
 ---------------------------------------------------------------------

 SCF Done:  E(UHF) =  -417.934208475     A.U. after   35 cycles
 E2 =    -0.1270067333D+01 EUMP2 =    -0.41920427580754D+03
 CCSD(T)= -0.41932306940D+03

 The electronic state is 2-A.
 Alpha  occ. eigenvalues --  -20.64092 -20.61813 -20.56416 -11.42219 -11.30590
 Alpha  occ. eigenvalues --  -11.30131 -11.25650 -11.22918  -1.48659  -1.42277
 Alpha  occ. eigenvalues --   -1.38240  -1.08603  -1.04962  -0.93255  -0.84525
 Alpha  occ. eigenvalues --   -0.80726  -0.76375  -0.69882  -0.68794  -0.66767
 Alpha  occ. eigenvalues --   -0.63808  -0.58782  -0.57844  -0.56831  -0.54922
 Alpha  occ. eigenvalues --   -0.54407  -0.50945  -0.48423  -0.46697  -0.45175
 Alpha  occ. eigenvalues --   -0.44932
 Alpha virt. eigenvalues --    0.04009   0.04581   0.05773   0.06451   0.07264
 Alpha virt. eigenvalues --    0.08132   0.08739   0.09201   0.11305   0.12356
 Alpha virt. eigenvalues --    0.13234   0.13481   0.14512   0.15792   0.16055

  Beta  occ. eigenvalues --  -20.61832 -20.61613 -20.56987 -11.41782 -11.30138
  Beta  occ. eigenvalues --  -11.27344 -11.25885 -11.22919  -1.48944  -1.39160
  Beta  occ. eigenvalues --   -1.33774  -1.08308  -1.03674  -0.91750  -0.83142
  Beta  occ. eigenvalues --   -0.76524  -0.72855  -0.70428  -0.67264  -0.64052
  Beta  occ. eigenvalues --   -0.59240  -0.58877  -0.56055  -0.54610  -0.53288
  Beta  occ. eigenvalues --   -0.51102  -0.49277  -0.47853  -0.43530  -0.43099
  Beta virt. eigenvalues --   -0.00733   0.04114   0.05616   0.05783   0.06462
  Beta virt. eigenvalues --    0.07334   0.08203   0.09178   0.09968   0.11732
  Beta virt. eigenvalues --    0.12642   0.13405   0.13793   0.14882   0.15552

 Mulliken charges and spin densities:
               1          2
     1  O   -0.305130   0.495431
     2  H    0.272636  -0.022666
     3  C   -0.615698   1.670632
     4  H    0.396339  -0.157083
     5  C    1.314040  -1.013689
     6  C   -0.972802   0.141441
     7  O   -0.276711  -0.117532
     8  O   -0.086209   0.003095
     9  C   -0.165478   0.002133
    10  C   -0.359790  -0.001075
    11  H    0.168322  -0.000234
    12  H    0.175882  -0.000074
    13  H    0.136038  -0.000120
    14  H    0.145315  -0.000117
    15  H    0.173245  -0.000141
 Sum of Mulliken charges =  -0.00000   1.00000

 Dipole moment (field-independent basis, Debye):
    X=             -0.9842    Y=             -0.5275    Z=             -1.0526  Tot=              1.5346
 Quadrupole moment (field-independent basis, Debye-Ang):
   XX=            -38.1786   YY=            -52.4692   ZZ=            -47.9202
   XY=              8.0189   XZ=             -3.2824   YZ=             -0.3589

 Normal termination of Gaussian 16 at Wed Jul  2 21:05:59 2025.
