 Gaussian 16, Revision A.03,
 Gaussian 16:  ES64L-G16RevA.03 25-Dec-2016

 --------------------------
 # ccsd(t)/6-311++g(d,p) sp
 --------------------------

 -------------------
 Title Card Required
 -------------------
 Symbolic Z-matrix:
 Charge =  0 Multiplicity = 2

                         Standard orientation:
 ---------------------------------------------------------------------
 Center     Atomic      Atomic             Coordinates (Angstroms)
 Number     Number       Type             X           Y           Z
 ---------------------------------------------------------------------
      1          8           0        4.561890   -0.244269    0.332596
      2          1           0        4.585262    0.634240   -0.064305
      3          6           0        2.249241   -0.304959   -0.069928
      4          1           0        3.867618   -0.735534   -0.157580
      5          6           0        1.092748    0.032596   -0.102599
      6          6           0       -0.310531    0.403457   -0.191025
      7          8           0       -0.695870    1.532349   -0.067081
      8          8           0       -1.075530   -0.659159   -0.422070
      9          6           0       -2.494245   -0.410796   -0.508777
     10          6           0       -3.109137   -0.284276    0.870898
     11          1           0       -2.880040   -1.275721   -1.045039
     12          1           0       -2.654997    0.489074   -1.103548
     13          1           0       -4.191124   -0.172259    0.778829
     14          1           0       -2.903032   -1.177286    1.462643
     15          1           0       -2.716051    0.589975    1.390034
 ---------------------------------------------------------------------

 SCF Done:  E(UHF) =  -417.945065495     A.U. after   30 cycles
 E2 =    -0.1260493326D+01 EUMP2 =    -0.41920555882039D+03
 CCSD(T)= -0.41932557107D+03

 The electronic state is 2-A.
 Alpha  occ. eigenvalues --  -20.62119 -20.59871 -20.56734 -11.42516 -11.31974
 Alpha  occ. eigenvalues --  -11.30349 -11.26147 -11.23096  -1.49008  -1.39373
 Alpha  occ. eigenvalues --   -1.38552  -1.09526  -1.05355  -0.93627  -0.84446
 Alpha  occ. eigenvalues --   -0.78254  -0.76587  -0.70181  -0.67260  -0.66638
 Alpha  occ. eigenvalues --   -0.63885  -0.59022  -0.57842  -0.55254  -0.54757
 Alpha  occ. eigenvalues --   -0.53640  -0.51175  -0.48908  -0.47462  -0.46025
 Alpha  occ. eigenvalues --   -0.45875
 Alpha virt. eigenvalues --    0.03932   0.04799   0.05649   0.06370   0.07411
 Alpha virt. eigenvalues --    0.07889   0.08339   0.09092   0.11080   0.12182
 Alpha virt. eigenvalues --    0.12936   0.13288   0.14333   0.15270   0.16080

  Beta  occ. eigenvalues --  -20.62137 -20.58756 -20.57381 -11.42018 -11.30357
  Beta  occ. eigenvalues --  -11.27954 -11.26339 -11.23098  -1.49326  -1.39594
  Beta  occ. eigenvalues --   -1.35760  -1.08857  -1.03946  -0.91929  -0.83344
  Beta  occ. eigenvalues --   -0.76813  -0.73384  -0.70808  -0.67639  -0.64296
  Beta  occ. eigenvalues --   -0.59479  -0.59199  -0.56426  -0.54858  -0.52068
  Beta  occ. eigenvalues --   -0.51316  -0.49721  -0.48217  -0.44320  -0.43848
  Beta virt. eigenvalues --    0.00088   0.04014   0.05623   0.06174   0.06387
  Beta virt. eigenvalues --    0.07522   0.07996   0.09075   0.10008   0.11601
  Beta virt. eigenvalues --    0.12678   0.13250   0.13509   0.14875   0.15543

 Mulliken charges and spin densities:
               1          2
     1  O   -0.377980   0.168875
     2  H    0.272032  -0.010581
     3  C   -0.541765   1.985626
     4  H    0.338822  -0.070437
     5  C    1.309449  -1.082755
     6  C   -0.915710   0.139208
     7  O   -0.272548  -0.133569
     8  O   -0.087029   0.003323
     9  C   -0.166800   0.002430
    10  C   -0.360118  -0.001316
    11  H    0.168868  -0.000255
    12  H    0.176377  -0.000145
    13  H    0.137174  -0.000115
    14  H    0.145666  -0.000114
    15  H    0.173562  -0.000174
 Sum of Mulliken charges =  -0.00000   1.00000

 Dipole moment (field-independent basis, Debye):
    X=             -1.8026    Y=             -0.8787    Z=             -1.5255  Tot=              2.5196
 Quadrupole moment (field-independent basis, Debye-Ang):
   XX=            -44.1152   YY=            -51.8628   ZZ=            -47.7509
   XY=              6.6407   XZ=             -5.4119   YZ=             -0.0784

 37\PMP3-0=-419.2504571\MP4SDQ=-419.2593132\CCSD=-419.2709339\CCSD(T)=-
 Normal termination of Gaussian 16 at Sun Aug 17 10:26:58 2025.
