 Gaussian 16, Revision A.03,
 Gaussian 16:  ES64L-G16RevA.03 25-Dec-2016

 --------------------------
 # ccsd(t)/6-311++g(d,p) sp
 --------------------------

 -------------------
 Title Card Required
 -------------------
 Symbolic Z-matrix:
 Charge =  0 Multiplicity = 2

                         Standard orientation:
 ---------------------------------------------------------------------
 Center     Atomic      Atomic             Coordinates (Angstroms)
 Number     Number       Type             X           Y           Z
 ---------------------------------------------------------------------
      1          8           0        4.558833   -0.251726    0.324257
      2          1           0        4.595354    0.641287   -0.043336
      3          6           0        2.256384   -0.309055   -0.074801
      4          1           0        3.719379   -0.669351   -0.084483
      5          6           0        1.098836    0.028933   -0.104694
      6          6           0       -0.306909    0.403123   -0.189880
      7          8           0       -0.692249    1.531889   -0.063505
      8          8           0       -1.074172   -0.657544   -0.423871
      9          6           0       -2.493129   -0.407586   -0.509446
     10          6           0       -3.107746   -0.284383    0.870698
     11          1           0       -2.879588   -1.270805   -1.047963
     12          1           0       -2.653253    0.493978   -1.101776
     13          1           0       -4.189651   -0.171165    0.779123
     14          1           0       -2.902325   -1.179192    1.459949
     15          1           0       -2.713827    0.588104    1.392172
 ---------------------------------------------------------------------

 SCF Done:  E(UHF) =  -417.937409602     A.U. after   34 cycles
 E2 =    -0.1266004650D+01 EUMP2 =    -0.41920341425208D+03
 CCSD(T)= -0.41932331517D+03

 The electronic state is 2-A.
 Alpha  occ. eigenvalues --  -20.62120 -20.61425 -20.56765 -11.42573 -11.31797
 Alpha  occ. eigenvalues --  -11.30354 -11.26260 -11.23100  -1.49000  -1.40282
 Alpha  occ. eigenvalues --   -1.38557  -1.09420  -1.05335  -0.93624  -0.84620
 Alpha  occ. eigenvalues --   -0.79722  -0.76649  -0.70184  -0.67404  -0.66920
 Alpha  occ. eigenvalues --   -0.63974  -0.58990  -0.57200  -0.55547  -0.55006
 Alpha  occ. eigenvalues --   -0.54527  -0.51173  -0.48883  -0.47325  -0.45967
 Alpha  occ. eigenvalues --   -0.45822
 Alpha virt. eigenvalues --    0.03934   0.04790   0.05657   0.06367   0.07335
 Alpha virt. eigenvalues --    0.08024   0.08329   0.09090   0.11130   0.12202
 Alpha virt. eigenvalues --    0.13006   0.13314   0.14366   0.15548   0.15979

  Beta  occ. eigenvalues --  -20.62137 -20.59698 -20.57387 -11.42094 -11.30361
  Beta  occ. eigenvalues --  -11.28055 -11.26470 -11.23102  -1.49308  -1.39558
  Beta  occ. eigenvalues --   -1.34524  -1.08831  -1.03984  -0.91983  -0.83400
  Beta  occ. eigenvalues --   -0.76815  -0.72670  -0.70788  -0.67613  -0.64300
  Beta  occ. eigenvalues --   -0.59468  -0.58650  -0.56384  -0.54847  -0.52406
  Beta  occ. eigenvalues --   -0.51334  -0.49690  -0.48189  -0.44281  -0.43825
  Beta virt. eigenvalues --   -0.00609   0.04010   0.05630   0.05955   0.06375
  Beta virt. eigenvalues --    0.07397   0.08126   0.09073   0.09904   0.11583
  Beta virt. eigenvalues --    0.12552   0.13258   0.13585   0.14795   0.15488

 Mulliken charges and spin densities:
               1          2
     1  O   -0.361988   0.310299
     2  H    0.269968  -0.015558
     3  C   -0.570193   1.881670
     4  H    0.373095  -0.119302
     5  C    1.323368  -1.080990
     6  C   -0.950603   0.148784
     7  O   -0.272596  -0.128651
     8  O   -0.086555   0.003342
     9  C   -0.166185   0.002409
    10  C   -0.360016  -0.001245
    11  H    0.169145  -0.000247
    12  H    0.176430  -0.000112
    13  H    0.137042  -0.000122
    14  H    0.145727  -0.000116
    15  H    0.173361  -0.000161
 Sum of Mulliken charges =  -0.00000   1.00000

 Dipole moment (field-independent basis, Debye):
    X=             -1.7085    Y=             -0.6557    Z=             -1.2670  Tot=              2.2259
 Quadrupole moment (field-independent basis, Debye-Ang):
   XX=            -42.9277   YY=            -52.1609   ZZ=            -47.8321
   XY=              7.5875   XZ=             -4.2333   YZ=             -0.2569

 Normal termination of Gaussian 16 at Mon Aug 18 18:10:57 2025.
