 Gaussian 16, Revision A.03,
 Gaussian 16:  ES64L-G16RevA.03 25-Dec-2016

 --------------------------
 # freq 6-311++g(d,p) m062x
 --------------------------

 -------------------
 Title Card Required
 -------------------
 Symbolic Z-matrix:
 Charge =  0 Multiplicity = 2

                         Standard orientation:
 ---------------------------------------------------------------------
 Center     Atomic      Atomic             Coordinates (Angstroms)
 Number     Number       Type             X           Y           Z
 ---------------------------------------------------------------------
      1          8           0        4.558293   -0.256201    0.320167
      2          1           0        4.604646    0.646264   -0.031920
      3          6           0        2.263137   -0.312025   -0.077043
      4          1           0        3.575405   -0.626317   -0.047375
      5          6           0        1.104284    0.025338   -0.106121
      6          6           0       -0.303601    0.403101   -0.189131
      7          8           0       -0.689912    1.531759   -0.062346
      8          8           0       -1.073161   -0.656784   -0.424593
      9          6           0       -2.492012   -0.405764   -0.509669
     10          6           0       -3.106595   -0.283609    0.870658
     11          1           0       -2.879191   -1.268218   -1.048978
     12          1           0       -2.651850    0.496497   -1.101017
     13          1           0       -4.188465   -0.169599    0.779389
     14          1           0       -2.901625   -1.179142    1.458987
     15          1           0       -2.711952    0.588081    1.392917
 ---------------------------------------------------------------------

 SCF Done:  E(UM062X) =  -420.174933218     A.U. after   22 cycles

 The electronic state is 2-A.
 Alpha  occ. eigenvalues --  -19.70039 -19.68736 -19.63671 -10.71153 -10.60943
 Alpha  occ. eigenvalues --  -10.59504 -10.57549 -10.54077  -1.26129  -1.18847
 Alpha  occ. eigenvalues --   -1.16851  -0.90858  -0.87399  -0.78361  -0.71063
 Alpha  occ. eigenvalues --   -0.67488  -0.64458  -0.58874  -0.57243  -0.56785
 Alpha  occ. eigenvalues --   -0.54078  -0.49734  -0.47107  -0.46564  -0.45752
 Alpha  occ. eigenvalues --   -0.43223  -0.42292  -0.39874  -0.38945  -0.37826
 Alpha  occ. eigenvalues --   -0.36747
 Alpha virt. eigenvalues --   -0.01992  -0.00502   0.00062   0.01711   0.02316
 Alpha virt. eigenvalues --    0.02701   0.03715   0.05054   0.05373   0.06283
 Alpha virt. eigenvalues --    0.06953   0.07823   0.08216   0.08729   0.10222

  Beta  occ. eigenvalues --  -19.68979 -19.68744 -19.63665 -10.71138 -10.60944
  Beta  occ. eigenvalues --  -10.58631 -10.57450 -10.54078  -1.26130  -1.16844
  Beta  occ. eigenvalues --   -1.14773  -0.90417  -0.86526  -0.77903  -0.70209
  Beta  occ. eigenvalues --   -0.64690  -0.63052  -0.58872  -0.56869  -0.54209
  Beta  occ. eigenvalues --   -0.51782  -0.49711  -0.47073  -0.45704  -0.43518
  Beta  occ. eigenvalues --   -0.42366  -0.39512  -0.38942  -0.36719  -0.36099
  Beta virt. eigenvalues --   -0.16674  -0.01324  -0.00228   0.00258   0.01725
  Beta virt. eigenvalues --    0.02338   0.02872   0.03871   0.05369   0.05671
  Beta virt. eigenvalues --    0.06567   0.07035   0.07843   0.08295   0.08781

 Mulliken charges and spin densities:
               1          2
     1  O   -0.287805   0.523013
     2  H    0.269580  -0.012565
     3  C   -0.647800   0.538032
     4  H    0.434273  -0.037414
     5  C    1.115569   0.053079
     6  C   -0.910041  -0.064287
     7  O   -0.209131   0.001376
     8  O    0.010847   0.000083
     9  C   -0.281451  -0.001328
    10  C   -0.403123   0.000235
    11  H    0.197636  -0.000131
    12  H    0.193697   0.000099
    13  H    0.165819  -0.000017
    14  H    0.167466  -0.000008
    15  H    0.184462  -0.000166
 Sum of Mulliken charges =  -0.00000   1.00000

 Dipole moment (field-independent basis, Debye):
    X=             -0.9716    Y=             -0.3008    Z=             -0.8928  Tot=              1.3534
 Quadrupole moment (field-independent basis, Debye-Ang):
   XX=            -36.2043   YY=            -52.1255   ZZ=            -48.0951
   XY=              8.0164   XZ=             -2.9376   YZ=             -0.3752

  Exact polarizability: 138.507  -7.278  61.077   2.769   0.507  50.573
 Approx polarizability: 123.497 -12.873  79.741   3.890   1.514  57.716

 ******    1 imaginary frequencies (negative Signs) ******

                      1                      2                      3
                      A                      A                      A
 Frequencies --  -1383.2242                17.8868                55.3158
 Red. masses --      1.0294                 3.5596                 6.7592
 Frc consts  --      1.1604                 0.0007                 0.0122
 IR Inten    --    552.3027                12.7412                 1.5062

                      4                      5                      6
                      A                      A                      A
 Frequencies --     82.2578               116.8466               153.0207
 Red. masses --      2.9928                 3.3518                 3.5937
 Frc consts  --      0.0119                 0.0270                 0.0496
 IR Inten    --      5.7553                 1.8206                16.6334

                      7                      8                      9
                      A                      A                      A
 Frequencies --    178.4046               224.4993               267.2667
 Red. masses --      1.5567                 1.2908                 4.4395
 Frc consts  --      0.0292                 0.0383                 0.1868
 IR Inten    --     73.9978                 3.0684                12.6273

                     10                     11                     12
                      A                      A                      A
 Frequencies --    335.1260               356.2773               425.6708
 Red. masses --      2.8732                 7.5474                 3.7806
 Frc consts  --      0.1901                 0.5644                 0.4036
 IR Inten    --     10.1842                 3.4175                 2.4288

                     13                     14                     15
                      A                      A                      A
 Frequencies --    563.9288               610.5176               627.6709
 Red. masses --      5.7056                 5.5692                 1.1295
 Frc consts  --      1.0691                 1.2230                 0.2622
 IR Inten    --     11.5061                26.4829               174.6299

                     16                     17                     18
                      A                      A                      A
 Frequencies --    777.4723               798.1745               893.5413
 Red. masses --      9.3703                 1.2272                 3.1325
 Frc consts  --      3.3371                 0.4606                 1.4736
 IR Inten    --     20.5191                 3.2050                 8.6274

                     19                     20                     21
                      A                      A                      A
 Frequencies --    925.2317              1071.0212              1116.2358
 Red. masses --      2.6311                 3.1949                 1.4540
 Frc consts  --      1.3270                 2.1592                 1.0674
 IR Inten    --      2.6173                32.2850                30.1975

                     22                     23                     24
                      A                      A                      A
 Frequencies --   1129.0133              1202.8777              1285.5794
 Red. masses --      2.0075                 1.7784                 4.2286
 Frc consts  --      1.5077                 1.5161                 4.1176
 IR Inten    --     47.1090                 5.7784               779.7964

                     25                     26                     27
                      A                      A                      A
 Frequencies --   1346.8390              1401.0696              1430.5874
 Red. masses --      1.2089                 1.2730                 1.3771
 Frc consts  --      1.2921                 1.4723                 1.6605
 IR Inten    --    103.4484                32.8473                 9.3321

                     28                     29                     30
                      A                      A                      A
 Frequencies --   1492.6304              1501.5154              1513.9039
 Red. masses --      1.0412                 1.0678                 1.0775
 Frc consts  --      1.3668                 1.4184                 1.4550
 IR Inten    --     12.1935                 3.9074                15.4105

                     31                     32                     33
                      A                      A                      A
 Frequencies --   1546.7337              1837.5135              2280.4491
 Red. masses --      1.0755                12.1060                10.5433
 Frc consts  --      1.5160                24.0831                32.3047
 IR Inten    --    346.7285               356.5267                35.7420

                     34                     35                     36
                      A                      A                      A
 Frequencies --   3075.9725              3108.3433              3151.4654
 Red. masses --      1.0354                 1.0608                 1.1014
 Frc consts  --      5.7717                 6.0385                 6.4452
 IR Inten    --     10.4098                18.5237                15.4025

                     37                     38                     39
                      A                      A                      A
 Frequencies --   3155.3037              3176.0435              3822.5711
 Red. masses --      1.1049                 1.1074                 1.0666
 Frc consts  --      6.4810                 6.5815                 9.1826
 IR Inten    --      2.0534                14.8337               143.2531

 - Thermochemistry -
 -------------------
 Temperature   298.150 Kelvin.  Pressure   1.00000 Atm.
 Atom     1 has atomic number  8 and mass  15.99491

 Molecular mass:   115.03952 amu.
 Principal axes and moments of inertia in atomic units:
                           1         2         3
     Eigenvalues --   286.965962618.509652731.10350
           X            0.99993   0.00857  -0.00838
           Y           -0.00865   0.99992  -0.00962
           Z            0.00830   0.00969   0.99992
 This molecule is an asymmetric top.
 Rotational symmetry number  1.
 Rotational temperatures (Kelvin)      0.30183     0.03308     0.03171
 Rotational constants (GHZ):           6.28904     0.68922     0.66081
    1 imaginary frequencies ignored.
 Zero-point vibrational energy     281450.1 (Joules/Mol)
                                   67.26818 (Kcal/Mol)
 Warning -- explicit consideration of  13 degrees of freedom as
           vibrations may cause significant error
 Vibrational temperatures:     25.74    79.59   118.35   168.12   220.16
          (Kelvin)            256.68   323.00   384.54   482.17   512.60
                              612.45   811.37   878.40   903.08  1118.61
                             1148.40  1285.61  1331.20  1540.96  1606.01
                             1624.40  1730.67  1849.66  1937.80  2015.83
                             2058.30  2147.56  2160.35  2178.17  2225.40
                             2643.77  3281.06  4425.64  4472.21  4534.26
                             4539.78  4569.62  5499.83

 Zero-point correction=                           0.107199 (Hartree/Particle)
 Thermal correction to Energy=                    0.117362
 Thermal correction to Enthalpy=                  0.118307
 Thermal correction to Gibbs Free Energy=         0.069245
 Sum of electronic and zero-point Energies=           -420.067735
 Sum of electronic and thermal Energies=              -420.057571
 Sum of electronic and thermal Enthalpies=            -420.056627
 Sum of electronic and thermal Free Energies=         -420.105689

                     E (Thermal)             CV                S
                      KCal/Mol        Cal/Mol-Kelvin    Cal/Mol-Kelvin
 Total                   73.646             32.944            103.260
 Electronic               0.000              0.000              1.377
 Translational            0.889              2.981             40.136
 Rotational               0.889              2.981             29.108
 Vibrational             71.869             26.982             32.639
 Vibration     1          0.593              1.986              6.856
 Vibration     2          0.596              1.975              4.618
 Vibration     3          0.600              1.961              3.836
 Vibration     4          0.608              1.935              3.152
 Vibration     5          0.619              1.899              2.634
 Vibration     6          0.629              1.869              2.345
 Vibration     7          0.649              1.804              1.923
 Vibration     8          0.672              1.733              1.614
 Vibration     9          0.716              1.605              1.235
 Vibration    10          0.732              1.562              1.138
 Vibration    11          0.787              1.414              0.873
 Vibration    12          0.920              1.109              0.516
 Vibration    13          0.970              1.010              0.432

 1\1\GINC-AJ\Freq\UM062X\6-311++G(d,p)\C5H7O3(2)\AAYUSH\23-Jun-2025\0\\
 # freq 6-311++g(d,p) m062x\\Title Card Required\\0,2\O,4.558293,-0.256
 201,0.320167\H,4.604646,0.646264,-0.03192\C,2.263137,-0.312025,-0.0770
 43\H,3.575405,-0.626317,-0.047375\C,1.104284,0.025338,-0.106121\C,-0.3
 03601,0.403101,-0.189131\O,-0.689912,1.531759,-0.062346\O,-1.073161,-0
 .656784,-0.424593\C,-2.492012,-0.405764,-0.509669\C,-3.106595,-0.28360
 9,0.870658\H,-2.879191,-1.268218,-1.048978\H,-2.65185,0.496497,-1.1010
 17\H,-4.188465,-0.169599,0.779389\H,-2.901625,-1.179142,1.458987\H,-2.

 Normal termination of Gaussian 16 at Mon Jun 23 00:35:55 2025.
