 Gaussian 16, Revision A.03,
 Gaussian 16:  ES64L-G16RevA.03 25-Dec-2016

 --------------------------
 # freq 6-311++g(d,p) m062x
 --------------------------

 -------------------
 Title Card Required
 -------------------
 Symbolic Z-matrix:
 Charge =  0 Multiplicity = 2

                         Standard orientation:
 ---------------------------------------------------------------------
 Center     Atomic      Atomic             Coordinates (Angstroms)
 Number     Number       Type             X           Y           Z
 ---------------------------------------------------------------------
      1          8           0        4.559874   -0.249632    0.326535
      2          1           0        4.592038    0.639411   -0.048934
      3          6           0        2.254125   -0.307953   -0.073601
      4          1           0        3.761844   -0.688733   -0.104695
      5          6           0        1.096957    0.030147   -0.104077
      6          6           0       -0.308007    0.403173   -0.190225
      7          8           0       -0.693169    1.531999   -0.064403
      8          8           0       -1.074519   -0.657966   -0.423381
      9          6           0       -2.493448   -0.408444   -0.509254
     10          6           0       -3.108120   -0.284387    0.870771
     11          1           0       -2.879683   -1.272119   -1.047188
     12          1           0       -2.653714    0.492672   -1.102233
     13          1           0       -4.190044   -0.171503    0.779044
     14          1           0       -2.902520   -1.178726    1.460669
     15          1           0       -2.714458    0.588572    1.391647
 ---------------------------------------------------------------------

 SCF Done:  E(UM062X) =  -420.175211345     A.U. after   24 cycles

 The electronic state is 2-A.
 Alpha  occ. eigenvalues --  -19.68941 -19.68020 -19.63898 -10.71352 -10.61083
 Alpha  occ. eigenvalues --  -10.60729 -10.57908 -10.54191  -1.26378  -1.18561
 Alpha  occ. eigenvalues --   -1.17100  -0.91280  -0.87759  -0.78570  -0.70956
 Alpha  occ. eigenvalues --   -0.67087  -0.64705  -0.59089  -0.57065  -0.55544
 Alpha  occ. eigenvalues --   -0.54118  -0.49910  -0.47248  -0.46202  -0.45889
 Alpha  occ. eigenvalues --   -0.42790  -0.42235  -0.40204  -0.39141  -0.38386
 Alpha  occ. eigenvalues --   -0.37157
 Alpha virt. eigenvalues --   -0.02290  -0.00389   0.00127   0.01632   0.02275
 Alpha virt. eigenvalues --    0.02684   0.03503   0.04883   0.05316   0.06140
 Alpha virt. eigenvalues --    0.06908   0.07742   0.08076   0.08649   0.10262

  Beta  occ. eigenvalues --  -19.68952 -19.67297 -19.63893 -10.71331 -10.61084
  Beta  occ. eigenvalues --  -10.59562 -10.57792 -10.54191  -1.26383  -1.17098
  Beta  occ. eigenvalues --   -1.15919  -0.90644  -0.86638  -0.77991  -0.70244
  Beta  occ. eigenvalues --   -0.64874  -0.64031  -0.59092  -0.57108  -0.54292
  Beta  occ. eigenvalues --   -0.50782  -0.49888  -0.47255  -0.45860  -0.43025
  Beta  occ. eigenvalues --   -0.42475  -0.39699  -0.39151  -0.36867  -0.36251
  Beta virt. eigenvalues --   -0.15926  -0.01210  -0.00197   0.00381   0.01654
  Beta virt. eigenvalues --    0.02282   0.02950   0.03675   0.05307   0.05788
  Beta virt. eigenvalues --    0.06683   0.06964   0.07761   0.08144   0.08668

 Mulliken charges and spin densities:
               1          2
     1  O   -0.326994   0.304122
     2  H    0.273803  -0.007902
     3  C   -0.604795   0.765076
     4  H    0.398548  -0.036480
     5  C    1.096356   0.069051
     6  C   -0.867638  -0.092319
     7  O   -0.207301   0.000372
     8  O    0.011926  -0.000241
     9  C   -0.281884  -0.001537
    10  C   -0.403162   0.000195
    11  H    0.198229  -0.000174
    12  H    0.193906   0.000081
    13  H    0.166588  -0.000033
    14  H    0.167763  -0.000015
    15  H    0.184654  -0.000197
 Sum of Mulliken charges =  -0.00000   1.00000

 Dipole moment (field-independent basis, Debye):
    X=             -1.4165    Y=             -0.4316    Z=             -1.1122  Tot=              1.8519
 Quadrupole moment (field-independent basis, Debye-Ang):
   XX=            -39.2337   YY=            -51.8441   ZZ=            -48.0407
   XY=              7.4759   XZ=             -3.9652   YZ=             -0.2263

  Exact polarizability: 142.679  -8.758  62.275   1.687   0.567  51.047
 Approx polarizability: 121.497 -13.266  80.403   3.112   1.837  57.953

 ******    4 imaginary frequencies (negative Signs) ******

                      1                      2                      3
                      A                      A                      A
 Frequencies --   -577.4682              -101.6299               -35.6243
 Red. masses --      1.0462                 1.1194                 8.1524
 Frc consts  --      0.2056                 0.0068                 0.0061
 IR Inten    --     90.8986                65.4338                 0.2908

                      4                      5                      6
                      A                      A                      A
 Frequencies --    -21.2889                76.6403               111.6400
 Red. masses --      5.0021                 4.2381                 4.5686
 Frc consts  --      0.0013                 0.0147                 0.0335
 IR Inten    --      7.9671                 3.4961                 0.8858

                      7                      8                      9
                      A                      A                      A
 Frequencies --    129.6293               201.7217               231.6541
 Red. masses --      3.6217                 3.3317                 1.4565
 Frc consts  --      0.0359                 0.0799                 0.0461
 IR Inten    --      4.4360                68.2781                 9.7522

                     10                     11                     12
                      A                      A                      A
 Frequencies --    250.5315               333.4308               420.3285
 Red. masses --      8.6634                 2.8453                 3.9026
 Frc consts  --      0.3204                 0.1864                 0.4062
 IR Inten    --     21.4991                10.2419                 7.1167

                     13                     14                     15
                      A                      A                      A
 Frequencies --    462.9626               552.4008               596.9043
 Red. masses --      1.0732                 6.1596                 6.7482
 Frc consts  --      0.1355                 1.1074                 1.4166
 IR Inten    --    161.3776                14.3186                51.9141

                     16                     17                     18
                      A                      A                      A
 Frequencies --    771.6531               798.7084               894.3657
 Red. masses --     10.2403                 1.2099                 3.0700
 Frc consts  --      3.5926                 0.4547                 1.4468
 IR Inten    --     16.9623                 4.8643                 7.3281

                     19                     20                     21
                      A                      A                      A
 Frequencies --    931.8767              1076.5767              1127.6439
 Red. masses --      2.9363                 4.1929                 2.0868
 Frc consts  --      1.5023                 2.8632                 1.5634
 IR Inten    --      3.1149                23.3917                27.0772

                     22                     23                     24
                      A                      A                      A
 Frequencies --   1202.8702              1286.8978              1347.5836
 Red. masses --      1.7783                 4.1330                 1.2169
 Frc consts  --      1.5160                 4.0327                 1.3020
 IR Inten    --      6.0346               797.6360               111.2859

                     25                     26                     27
                      A                      A                      A
 Frequencies --   1401.4410              1430.9648              1438.2276
 Red. masses --      1.2740                 1.3750                 1.1055
 Frc consts  --      1.4743                 1.6589                 1.3472
 IR Inten    --     36.6885                14.2242                41.9380

                     28                     29                     30
                      A                      A                      A
 Frequencies --   1492.7159              1501.6238              1514.0756
 Red. masses --      1.0412                 1.0672                 1.0788
 Frc consts  --      1.3670                 1.4178                 1.4570
 IR Inten    --     11.4559                 4.3317                19.4777

                     31                     32                     33
                      A                      A                      A
 Frequencies --   1839.3629              2230.8716              2772.4596
 Red. masses --     12.1482                10.1288                 1.0941
 Frc consts  --     24.2157                29.6999                 4.9550
 IR Inten    --    336.1467               131.9511               518.3792

                     34                     35                     36
                      A                      A                      A
 Frequencies --   3076.1431              3108.5257              3151.7575
 Red. masses --      1.0354                 1.0608                 1.1014
 Frc consts  --      5.7723                 6.0396                 6.4463
 IR Inten    --     10.1646                18.1509                15.2063

                     37                     38                     39
                      A                      A                      A
 Frequencies --   3155.5206              3176.3400              3872.9169
 Red. masses --      1.1049                 1.1074                 1.0673
 Frc consts  --      6.4818                 6.5827                 9.4319
 IR Inten    --      1.9108                14.6232               148.3511

 - Thermochemistry -
 -------------------
 Temperature   298.150 Kelvin.  Pressure   1.00000 Atm.
 Atom     1 has atomic number  8 and mass  15.99491

 Molecular mass:   115.03952 amu.
 Principal axes and moments of inertia in atomic units:
                           1         2         3
     Eigenvalues --   287.408692623.069372735.73614
           X            0.99993   0.00801  -0.00879
           Y           -0.00808   0.99993  -0.00851
           Z            0.00872   0.00858   0.99993
 This molecule is an asymmetric top.
 Rotational symmetry number  1.
 Rotational temperatures (Kelvin)      0.30136     0.03302     0.03166
 Rotational constants (GHZ):           6.27936     0.68803     0.65969
    4 imaginary frequencies ignored.
 Zero-point vibrational energy     286918.1 (Joules/Mol)
                                   68.57508 (Kcal/Mol)
 Warning -- explicit consideration of  11 degrees of freedom as
           vibrations may cause significant error
 Vibrational temperatures:    110.27   160.63   186.51   290.23   333.30
          (Kelvin)            360.46   479.73   604.76   666.10   794.78
                              858.81  1110.24  1149.16  1286.79  1340.76
                             1548.95  1622.43  1730.66  1851.56  1938.87
                             2016.36  2058.84  2069.29  2147.69  2160.50
                             2178.42  2646.43  3209.73  3988.95  4425.88
                             4472.48  4534.68  4540.09  4570.04  5572.26

 Zero-point correction=                           0.109281 (Hartree/Particle)
 Thermal correction to Energy=                    0.117508
 Thermal correction to Enthalpy=                  0.118452
 Thermal correction to Gibbs Free Energy=         0.075026
 Sum of electronic and zero-point Energies=           -420.065930
 Sum of electronic and thermal Energies=              -420.057703
 Sum of electronic and thermal Enthalpies=            -420.056759
 Sum of electronic and thermal Free Energies=         -420.100185

                     E (Thermal)             CV                S
                      KCal/Mol        Cal/Mol-Kelvin    Cal/Mol-Kelvin
 Total                   73.737             27.624             91.398
 Electronic               0.000              0.000              1.377
 Translational            0.889              2.981             40.136
 Rotational               0.889              2.981             29.113
 Vibrational             71.960             21.663             20.772
 Vibration     1          0.599              1.965              3.975
 Vibration     2          0.607              1.940              3.240
 Vibration     3          0.612              1.924              2.952
 Vibration     4          0.639              1.837              2.117
 Vibration     5          0.653              1.793              1.866
 Vibration     6          0.663              1.762              1.727
 Vibration     7          0.715              1.609              1.243
 Vibration     8          0.783              1.426              0.891
 Vibration     9          0.821              1.332              0.758
 Vibration    10          0.908              1.134              0.539
 Vibration    11          0.955              1.038              0.455

 1\1\GINC-AJ\Freq\UM062X\6-311++G(d,p)\C5H7O3(2)\AAYUSH\16-Aug-2025\0\\
 # freq 6-311++g(d,p) m062x\\Title Card Required\\0,2\O,4.499669,-0.266
 583,0.336483\H,4.532289,0.622969,-0.037738\C,2.193785,-0.322914,-0.063
 158\H,3.70126,-0.704581,-0.095167\C,1.036818,0.015944,-0.092867\C,-0.3
 67936,0.38996,-0.178137\O,-0.752368,1.518845,-0.050624\O,-1.135162,-0.
 670374,-0.4126\C,-2.553958,-0.419854,-0.497765\C,-3.168209,-0.297367,0
 .882587\H,-2.940861,-1.282529,-1.036822\H,-2.713814,0.482198,-1.089431
 \H,-4.250086,-0.183685,0.791291\H,-2.963015,-1.192666,1.47117\H,-2.773

 Normal termination of Gaussian 16 at Sat Aug 16 14:09:02 2025.
