 Gaussian 16, Revision A.03,
 Gaussian 16:  ES64L-G16RevA.03 25-Dec-2016

 -------------------
 # freq 6-31+g m062x
 -------------------

 -------------------
 Title Card Required
 -------------------
 Symbolic Z-matrix:
 Charge =  0 Multiplicity = 2

                         Standard orientation:
 ---------------------------------------------------------------------
 Center     Atomic      Atomic             Coordinates (Angstroms)
 Number     Number       Type             X           Y           Z
 ---------------------------------------------------------------------
      1          8           0        4.560898   -0.247420    0.329030
      2          1           0        4.588946    0.637436   -0.055041
      3          6           0        2.252067   -0.306808   -0.072208
      4          1           0        3.803114   -0.708519   -0.126597
      5          6           0        1.095181    0.031241   -0.103453
      6          6           0       -0.309056    0.403259   -0.190573
      7          8           0       -0.694179    1.532133   -0.065478
      8          8           0       -1.074894   -0.658443   -0.422829
      9          6           0       -2.493756   -0.409379   -0.509040
     10          6           0       -3.108506   -0.284315    0.870844
     11          1           0       -2.879795   -1.273566   -1.046295
     12          1           0       -2.654192    0.491229   -1.102757
     13          1           0       -4.190453   -0.171781    0.778964
     14          1           0       -2.902713   -1.178117    1.461495
     15          1           0       -2.715089    0.589171    1.391019
 ---------------------------------------------------------------------

 SCF Done:  E(UM062X) =  -419.916524730     A.U. after   23 cycles

 The electronic state is 2-A.
 Alpha  occ. eigenvalues --  -19.71267 -19.70759 -19.66940 -10.73615 -10.62516
 Alpha  occ. eigenvalues --  -10.62054 -10.59489 -10.54993  -1.28690  -1.20718
 Alpha  occ. eigenvalues --   -1.19318  -0.92048  -0.88533  -0.79100  -0.71564
 Alpha  occ. eigenvalues --   -0.68056  -0.64977  -0.59042  -0.57381  -0.55178
 Alpha  occ. eigenvalues --   -0.54241  -0.50076  -0.47440  -0.46581  -0.45890
 Alpha  occ. eigenvalues --   -0.42888  -0.42191  -0.40201  -0.38948  -0.38601
 Alpha  occ. eigenvalues --   -0.37384
 Alpha virt. eigenvalues --   -0.02440   0.01382   0.02089   0.03304   0.03729
 Alpha virt. eigenvalues --    0.04575   0.04817   0.06404   0.07277   0.08284
 Alpha virt. eigenvalues --    0.08772   0.09012   0.09154   0.10545   0.12335

  Beta  occ. eigenvalues --  -19.71278 -19.69975 -19.66945 -10.73590 -10.62055
  Beta  occ. eigenvalues --  -10.61374 -10.59400 -10.54993  -1.28697  -1.19334
  Beta  occ. eigenvalues --   -1.18181  -0.91366  -0.87496  -0.78619  -0.70967
  Beta  occ. eigenvalues --   -0.65705  -0.64883  -0.59064  -0.57430  -0.54672
  Beta  occ. eigenvalues --   -0.50069  -0.49882  -0.47441  -0.45858  -0.43169
  Beta  occ. eigenvalues --   -0.42460  -0.39616  -0.38926  -0.37108  -0.36547
  Beta virt. eigenvalues --   -0.16280  -0.01342   0.01742   0.02204   0.03348
  Beta virt. eigenvalues --    0.04371   0.04676   0.04918   0.06530   0.07581
  Beta virt. eigenvalues --    0.08318   0.08773   0.09054   0.09420   0.10800

 Mulliken charges and spin densities:
               1          2
     1  O   -0.583589   0.312056
     2  H    0.434372  -0.011648
     3  C    1.577196   0.508644
     4  H    0.481084  -0.023455
     5  C   -0.526887   0.177174
     6  C   -1.134505   0.041815
     7  O   -0.350080  -0.003083
     8  O   -0.206922  -0.001288
     9  C   -0.255268   0.000649
    10  C   -0.559410  -0.000646
    11  H    0.222316  -0.000053
    12  H    0.233464  -0.000073
    13  H    0.209760  -0.000111
    14  H    0.221828  -0.000005
    15  H    0.236641   0.000023
 Sum of Mulliken charges =  -0.00000   1.00000

 Dipole moment (field-independent basis, Debye):
    X=             -1.3881    Y=             -0.2798    Z=             -1.4448  Tot=              2.0230
 Quadrupole moment (field-independent basis, Debye-Ang):
   XX=            -39.6961   YY=            -53.0367   ZZ=            -48.4562
   XY=              8.1324   XZ=             -5.5534   YZ=             -0.1953

  Exact polarizability: 140.254  -7.713  60.148   2.271   0.671  46.855
 Approx polarizability: 115.375 -13.519  75.486   3.644   2.359  48.233

 ******    5 imaginary frequencies (negative Signs) ******

                      1                      2                      3
                      A                      A                      A
 Frequencies --   -796.0456              -508.7490              -183.6313
 Red. masses --      1.0240                 1.0522                 1.8202
 Frc consts  --      0.3823                 0.1605                 0.0362
 IR Inten    --     87.2215               143.7309               102.0421

                      4                      5                      6
                      A                      A                      A
 Frequencies --    -76.5774               -24.5480                41.5336
 Red. masses --      6.9304                 2.9868                 4.5759
 Frc consts  --      0.0239                 0.0011                 0.0047
 IR Inten    --      5.5275                 0.7354                16.1205

                      7                      8                      9
                      A                      A                      A
 Frequencies --     69.4712               177.0347               191.7969
 Red. masses --      4.6955                 1.6354                 2.2617
 Frc consts  --      0.0134                 0.0302                 0.0490
 IR Inten    --      6.5491                32.5094                66.1212

                     10                     11                     12
                      A                      A                      A
 Frequencies --    224.6578               303.7953               328.2535
 Red. masses --      3.1093                 3.3975                 4.0147
 Frc consts  --      0.0925                 0.1847                 0.2549
 IR Inten    --     14.8300                12.1584                81.7771

                     13                     14                     15
                      A                      A                      A
 Frequencies --    422.3438               579.4973               616.6427
 Red. masses --      4.1188                 5.1300                 9.0946
 Frc consts  --      0.4329                 1.0150                 2.0375
 IR Inten    --     10.7968                 2.8003                63.3780

                     16                     17                     18
                      A                      A                      A
 Frequencies --    792.5382               815.3332               899.3127
 Red. masses --      9.5038                 1.2910                 3.3469
 Frc consts  --      3.5171                 0.5057                 1.5948
 IR Inten    --     15.4374                 6.3218                10.1523

                     19                     20                     21
                      A                      A                      A
 Frequencies --    948.2192              1112.5543              1157.4665
 Red. masses --      2.6646                 4.2200                 2.0865
 Frc consts  --      1.4116                 3.0775                 1.6469
 IR Inten    --      2.2784                 7.1564                23.3237

                     22                     23                     24
                      A                      A                      A
 Frequencies --   1227.4708              1326.8191              1371.5924
 Red. masses --      1.7615                 2.0871                 1.6707
 Frc consts  --      1.5637                 2.1648                 1.8518
 IR Inten    --      5.2964               469.9284               349.9769

                     25                     26                     27
                      A                      A                      A
 Frequencies --   1440.3639              1444.2088              1456.3794
 Red. masses --      1.1462                 1.3164                 1.2663
 Frc consts  --      1.4010                 1.6177                 1.5825
 IR Inten    --     80.7111                30.9490                14.9164

                     28                     29                     30
                      A                      A                      A
 Frequencies --   1528.1597              1536.0222              1544.9184
 Red. masses --      1.0422                 1.0758                 1.0679
 Frc consts  --      1.4339                 1.4955                 1.5018
 IR Inten    --     14.8837                 7.4967                23.0114

                     31                     32                     33
                      A                      A                      A
 Frequencies --   1907.7828              2309.9158              3039.2315
 Red. masses --     12.4154                10.9232                 1.0746
 Frc consts  --     26.6237                34.3394                 5.8485
 IR Inten    --    308.8740               216.8645               655.8182

                     34                     35                     36
                      A                      A                      A
 Frequencies --   3108.2552              3138.2616              3188.3988
 Red. masses --      1.0351                 1.0602                 1.1007
 Frc consts  --      5.8920                 6.1522                 6.5930
 IR Inten    --     12.7593                19.7050                12.5593

                     37                     38                     39
                      A                      A                      A
 Frequencies --   3191.3413              3212.2985              3896.0089
 Red. masses --      1.1022                 1.1053                 1.0667
 Frc consts  --      6.6137                 6.7197                 9.5393
 IR Inten    --      7.5197                17.2325               110.5419

 - Thermochemistry -
 -------------------
 Temperature   298.150 Kelvin.  Pressure   1.00000 Atm.
 Atom     1 has atomic number  8 and mass  15.99491

 Molecular mass:   115.03952 amu.
 Principal axes and moments of inertia in atomic units:
                           1         2         3
     Eigenvalues --   287.589502624.517262737.20839
           X            0.99993   0.00784  -0.00895
           Y           -0.00792   0.99994  -0.00801
           Z            0.00889   0.00808   0.99993
 This molecule is an asymmetric top.
 Rotational symmetry number  1.
 Rotational temperatures (Kelvin)      0.30117     0.03300     0.03164
 Rotational constants (GHZ):           6.27541     0.68765     0.65934
    5 imaginary frequencies ignored.
 Zero-point vibrational energy     290380.8 (Joules/Mol)
                                   69.40268 (Kcal/Mol)
 Warning -- explicit consideration of  10 degrees of freedom as
           vibrations may cause significant error
 Vibrational temperatures:     59.76    99.95   254.71   275.95   323.23
          (Kelvin)            437.09   472.28   607.66   833.77   887.21
                             1140.29  1173.08  1293.91  1364.28  1600.72
                             1665.34  1766.06  1909.00  1973.42  2072.36
                             2077.89  2095.41  2198.68  2209.99  2222.79
                             2744.87  3323.45  4372.78  4472.09  4515.26
                             4587.39  4591.63  4621.78  5605.49

 Zero-point correction=                           0.110600 (Hartree/Particle)
 Thermal correction to Energy=                    0.118550
 Thermal correction to Enthalpy=                  0.119494
 Thermal correction to Gibbs Free Energy=         0.075849
 Sum of electronic and zero-point Energies=           -419.805925
 Sum of electronic and thermal Energies=              -419.797975
 Sum of electronic and thermal Enthalpies=            -419.797031
 Sum of electronic and thermal Free Energies=         -419.840676

                     E (Thermal)             CV                S
                      KCal/Mol        Cal/Mol-Kelvin    Cal/Mol-Kelvin
 Total                   74.391             25.876             91.859
 Electronic               0.000              0.000              1.377
 Translational            0.889              2.981             40.136
 Rotational               0.889              2.981             29.115
 Vibrational             72.614             19.914             21.232
 Vibration     1          0.594              1.981              5.185
 Vibration     2          0.598              1.969              4.168
 Vibration     3          0.628              1.871              2.359
 Vibration     4          0.634              1.851              2.210
 Vibration     5          0.649              1.803              1.921
 Vibration     6          0.695              1.667              1.396
 Vibration     7          0.711              1.619              1.269
 Vibration     8          0.785              1.422              0.884
 Vibration     9          0.936              1.076              0.486
 Vibration    10          0.976              0.997              0.422

 Normal termination of Gaussian 16 at Fri Jun 20 12:27:49 2025.
