 Gaussian 16, Revision A.03,
 Gaussian 16:  ES64L-G16RevA.03 25-Dec-2016

 --------------------------
 # freq 6-311++g(d,p) m062x
 --------------------------

 -------------------
 Title Card Required
 -------------------
 Symbolic Z-matrix:
 Charge =  0 Multiplicity = 2

                         Standard orientation:
 ---------------------------------------------------------------------
 Center     Atomic      Atomic             Coordinates (Angstroms)
 Number     Number       Type             X           Y           Z
 ---------------------------------------------------------------------
      1          8           0        4.559326   -0.250716    0.325340
      2          1           0        4.593701    0.640355   -0.046032
      3          6           0        2.255224   -0.308508   -0.074232
      4          1           0        3.741009   -0.678777   -0.094130
      5          6           0        1.097885    0.029550   -0.104391
      6          6           0       -0.307464    0.403143   -0.190049
      7          8           0       -0.692697    1.531939   -0.063917
      8          8           0       -1.074344   -0.657744   -0.423643
      9          6           0       -2.493292   -0.407999   -0.509357
     10          6           0       -3.107931   -0.284403    0.870732
     11          1           0       -2.879636   -1.271432   -1.047604
     12          1           0       -2.653483    0.493355   -1.101991
     13          1           0       -4.189845   -0.171348    0.779084
     14          1           0       -2.902423   -1.178994    1.460283
     15          1           0       -2.714141    0.588306    1.391929
 ---------------------------------------------------------------------

 SCF Done:  E(UM062X) =  -420.174953855     A.U. after   24 cycles

 The electronic state is 2-A.
 Alpha  occ. eigenvalues --  -19.68937 -19.68178 -19.63898 -10.71355 -10.61081
 Alpha  occ. eigenvalues --  -10.60660 -10.57908 -10.54189  -1.26371  -1.18599
 Alpha  occ. eigenvalues --   -1.17094  -0.91262  -0.87747  -0.78566  -0.70979
 Alpha  occ. eigenvalues --   -0.67187  -0.64697  -0.59085  -0.57062  -0.55681
 Alpha  occ. eigenvalues --   -0.54140  -0.49905  -0.47246  -0.46139  -0.45888
 Alpha  occ. eigenvalues --   -0.42838  -0.42273  -0.40193  -0.39137  -0.38361
 Alpha  occ. eigenvalues --   -0.37148
 Alpha virt. eigenvalues --   -0.02278  -0.00392   0.00118   0.01634   0.02276
 Alpha virt. eigenvalues --    0.02686   0.03526   0.04888   0.05317   0.06146
 Alpha virt. eigenvalues --    0.06906   0.07743   0.08090   0.08651   0.10257

  Beta  occ. eigenvalues --  -19.68948 -19.67428 -19.63892 -10.71334 -10.61082
  Beta  occ. eigenvalues --  -10.59517 -10.57793 -10.54190  -1.26375  -1.17091
  Beta  occ. eigenvalues --   -1.15840  -0.90637  -0.86645  -0.77996  -0.70254
  Beta  occ. eigenvalues --   -0.64871  -0.63966  -0.59087  -0.57101  -0.54294
  Beta  occ. eigenvalues --   -0.50847  -0.49884  -0.47249  -0.45855  -0.43065
  Beta  occ. eigenvalues --   -0.42477  -0.39696  -0.39146  -0.36873  -0.36254
  Beta virt. eigenvalues --   -0.16102  -0.01240  -0.00201   0.00373   0.01656
  Beta virt. eigenvalues --    0.02284   0.02939   0.03703   0.05308   0.05774
  Beta virt. eigenvalues --    0.06655   0.06964   0.07764   0.08156   0.08672

 Mulliken charges and spin densities:
               1          2
     1  O   -0.325774   0.321325
     2  H    0.273143  -0.008194
     3  C   -0.608556   0.746966
     4  H    0.404705  -0.037152
     5  C    1.097558   0.068045
     6  C   -0.871835  -0.089812
     7  O   -0.207258   0.000664
     8  O    0.011911  -0.000188
     9  C   -0.281820  -0.001522
    10  C   -0.403178   0.000196
    11  H    0.198240  -0.000170
    12  H    0.193917   0.000085
    13  H    0.166553  -0.000033
    14  H    0.167765  -0.000014
    15  H    0.184630  -0.000194
 Sum of Mulliken charges =  -0.00000   1.00000

 Dipole moment (field-independent basis, Debye):
    X=             -1.4001    Y=             -0.4071    Z=             -1.0827  Tot=              1.8161
 Quadrupole moment (field-independent basis, Debye-Ang):
   XX=            -39.0642   YY=            -51.8782   ZZ=            -48.0487
   XY=              7.5784   XZ=             -3.8278   YZ=             -0.2493

  Exact polarizability: 143.624  -8.853  62.169   1.817   0.551  50.990
 Approx polarizability: 122.108 -13.315  80.358   3.210   1.800  57.914

 ******    4 imaginary frequencies (negative Signs) ******

                      1                      2                      3
                      A                      A                      A
 Frequencies --   -631.9282               -69.5720               -25.8004
 Red. masses --      1.0523                 1.1173                 7.6505
 Frc consts  --      0.2476                 0.0032                 0.0030
 IR Inten    --    104.9434                65.1182                 1.1437

                      4                      5                      6
                      A                      A                      A
 Frequencies --    -11.8149                80.3683               112.7559
 Red. masses --      5.3270                 4.1827                 4.3603
 Frc consts  --      0.0004                 0.0159                 0.0327
 IR Inten    --      6.0929                 6.0614                 0.4919

                      7                      8                      9
                      A                      A                      A
 Frequencies --    132.4370               208.0147               233.4761
 Red. masses --      3.7019                 2.6905                 1.6174
 Frc consts  --      0.0383                 0.0686                 0.0519
 IR Inten    --      2.7122                54.1412                12.6811

                     10                     11                     12
                      A                      A                      A
 Frequencies --    256.5975               333.6262               420.7829
 Red. masses --      8.2951                 2.8518                 3.9249
 Frc consts  --      0.3218                 0.1870                 0.4094
 IR Inten    --     28.6774                 9.9971                 6.2635

                     13                     14                     15
                      A                      A                      A
 Frequencies --    473.0363               553.2320               596.5359
 Red. masses --      1.0757                 6.1964                 6.5687
 Frc consts  --      0.1418                 1.1174                 1.3772
 IR Inten    --    168.8787                14.2674                51.7583

                     16                     17                     18
                      A                      A                      A
 Frequencies --    772.0458               798.6204               894.2746
 Red. masses --     10.2140                 1.2106                 3.0756
 Frc consts  --      3.5870                 0.4549                 1.4492
 IR Inten    --     17.0839                 4.7722                 7.2013

                     19                     20                     21
                      A                      A                      A
 Frequencies --    931.4940              1076.4334              1127.6016
 Red. masses --      2.9258                 4.1897                 2.0863
 Frc consts  --      1.4958                 2.8603                 1.5629
 IR Inten    --      2.8403                23.6838                27.1757

                     22                     23                     24
                      A                      A                      A
 Frequencies --   1202.8156              1286.4822              1347.4792
 Red. masses --      1.7781                 4.1529                 1.2153
 Frc consts  --      1.5156                 4.0496                 1.3001
 IR Inten    --      6.0352               805.0116               110.7402

                     25                     26                     27
                      A                      A                      A
 Frequencies --   1401.3840              1420.6606              1431.0241
 Red. masses --      1.2729                 1.1087                 1.3794
 Frc consts  --      1.4729                 1.3184                 1.6643
 IR Inten    --     36.9760                39.9361                 8.0104

                     28                     29                     30
                      A                      A                      A
 Frequencies --   1492.7131              1501.6134              1514.0585
 Red. masses --      1.0412                 1.0672                 1.0787
 Frc consts  --      1.3669                 1.4178                 1.4569
 IR Inten    --     11.5045                 4.3860                19.5311

                     31                     32                     33
                      A                      A                      A
 Frequencies --   1839.0617              2228.3941              2634.2975
 Red. masses --     12.1452                 8.7852                 1.1160
 Frc consts  --     24.2019                25.7032                 4.5630
 IR Inten    --    336.1603               165.8577               578.2506

                     34                     35                     36
                      A                      A                      A
 Frequencies --   3076.1385              3108.5349              3151.7518
 Red. masses --      1.0354                 1.0608                 1.1014
 Frc consts  --      5.7723                 6.0396                 6.4463
 IR Inten    --     10.1953                18.1835                15.2403

                     37                     38                     39
                      A                      A                      A
 Frequencies --   3155.5172              3176.3386              3868.3239
 Red. masses --      1.1049                 1.1074                 1.0671
 Frc consts  --      6.4818                 6.5827                 9.4080
 IR Inten    --      1.9186                14.6375               151.3936

 - Thermochemistry -
 -------------------
 Temperature   298.150 Kelvin.  Pressure   1.00000 Atm.
 Atom     1 has atomic number  8 and mass  15.99491

 Molecular mass:   115.03952 amu.
 Principal axes and moments of inertia in atomic units:
                           1         2         3
     Eigenvalues --   287.324042622.355472735.01037
           X            0.99993   0.00809  -0.00872
           Y           -0.00817   0.99993  -0.00874
           Z            0.00864   0.00881   0.99992
 This molecule is an asymmetric top.
 Rotational symmetry number  1.
 Rotational temperatures (Kelvin)      0.30145     0.03303     0.03167
 Rotational constants (GHZ):           6.28120     0.68821     0.65987
    4 imaginary frequencies ignored.
 Zero-point vibrational energy     286134.3 (Joules/Mol)
                                   68.38774 (Kcal/Mol)
 Warning -- explicit consideration of  11 degrees of freedom as
           vibrations may cause significant error
 Vibrational temperatures:    115.63   162.23   190.55   299.29   335.92
          (Kelvin)            369.19   480.01   605.41   680.59   795.98
                              858.28  1110.80  1149.04  1286.66  1340.21
                             1548.75  1622.37  1730.58  1850.96  1938.72
                             2016.28  2044.01  2058.92  2147.68  2160.49
                             2178.39  2646.00  3206.16  3790.17  4425.88
                             4472.49  4534.67  4540.09  4570.04  5565.66

 Zero-point correction=                           0.108983 (Hartree/Particle)
 Thermal correction to Energy=                    0.117165
 Thermal correction to Enthalpy=                  0.118110
 Thermal correction to Gibbs Free Energy=         0.074825
 Sum of electronic and zero-point Energies=           -420.065971
 Sum of electronic and thermal Energies=              -420.057788
 Sum of electronic and thermal Enthalpies=            -420.056844
 Sum of electronic and thermal Free Energies=         -420.100129

                     E (Thermal)             CV                S
                      KCal/Mol        Cal/Mol-Kelvin    Cal/Mol-Kelvin
 Total                   73.522             27.578             91.101
 Electronic               0.000              0.000              1.377
 Translational            0.889              2.981             40.136
 Rotational               0.889              2.981             29.112
 Vibrational             71.745             21.617             20.476
 Vibration     1          0.600              1.962              3.882
 Vibration     2          0.607              1.939              3.221
 Vibration     3          0.613              1.921              2.910
 Vibration     4          0.641              1.828              2.061
 Vibration     5          0.654              1.790              1.852
 Vibration     6          0.666              1.752              1.685
 Vibration     7          0.715              1.608              1.242
 Vibration     8          0.783              1.425              0.889
 Vibration     9          0.830              1.310              0.729
 Vibration    10          0.909              1.133              0.538
 Vibration    11          0.954              1.039              0.456

 1\1\GINC-AJ\Freq\UM062X\6-311++G(d,p)\C5H7O3(2)\AAYUSH\16-Aug-2025\0\\
 # freq 6-311++g(d,p) m062x\\Title Card Required\\0,2\O,4.498976,-0.266
 846,0.335774\H,4.533715,0.624593,-0.034678\C,2.194771,-0.323101,-0.063
 422\H,3.680371,-0.694073,-0.083986\C,1.037591,0.015552,-0.09301\C,-0.3
 67592,0.389918,-0.178014\O,-0.752252,1.51877,-0.050635\O,-1.135033,-0.
 670352,-0.412565\C,-2.553875,-0.419827,-0.497751\C,-3.168194,-0.297367
 ,0.882582\H,-2.940742,-1.282512,-1.036822\H,-2.713739,0.482221,-1.0894
 17\H,-4.25007,-0.18369,0.791257\H,-2.96301,-1.19267,1.471164\H,-2.7738

 Normal termination of Gaussian 16 at Sat Aug 16 14:11:06 2025.
