 Gaussian 16, Revision A.03,
 Gaussian 16:  ES64L-G16RevA.03 25-Dec-2016

 --------------------------
 # freq 6-311++g(d,p) m062x
 --------------------------

 -------------------
 Title Card Required
 -------------------
 Symbolic Z-matrix:
 Charge =  0 Multiplicity = 2

                         Standard orientation:
 ---------------------------------------------------------------------
 Center     Atomic      Atomic             Coordinates (Angstroms)
 Number     Number       Type             X           Y           Z
 ---------------------------------------------------------------------
      1          8           0        4.557898   -0.255753    0.320440
      2          1           0        4.603325    0.645509   -0.033106
      3          6           0        2.262141   -0.311588   -0.076837
      4          1           0        3.601413   -0.630590   -0.049849
      5          6           0        1.103483    0.025854   -0.105961
      6          6           0       -0.304121    0.403098   -0.189206
      7          8           0       -0.690261    1.531757   -0.062338
      8          8           0       -1.073336   -0.656846   -0.424582
      9          6           0       -2.492220   -0.405964   -0.509687
     10          6           0       -3.106796   -0.283838    0.870632
     11          1           0       -2.879286   -1.268460   -1.048992
     12          1           0       -2.652093    0.496269   -1.101065
     13          1           0       -4.188669   -0.169924    0.779337
     14          1           0       -2.901762   -1.179341    1.458978
     15          1           0       -2.712257    0.587901    1.392892
 ---------------------------------------------------------------------

 SCF Done:  E(UM062X) =  -420.174622309     A.U. after   21 cycles

 The electronic state is 2-A.
 Alpha  occ. eigenvalues --  -19.69728 -19.68780 -19.63725 -10.71204 -10.60974
 Alpha  occ. eigenvalues --  -10.59748 -10.57635 -10.54102  -1.26180  -1.18824
 Alpha  occ. eigenvalues --   -1.16904  -0.90938  -0.87474  -0.78405  -0.71059
 Alpha  occ. eigenvalues --   -0.67506  -0.64508  -0.58920  -0.57053  -0.56764
 Alpha  occ. eigenvalues --   -0.54107  -0.49771  -0.47134  -0.46422  -0.45781
 Alpha  occ. eigenvalues --   -0.43146  -0.42305  -0.39938  -0.38987  -0.37936
 Alpha  occ. eigenvalues --   -0.36836
 Alpha virt. eigenvalues --   -0.02053  -0.00473   0.00064   0.01695   0.02308
 Alpha virt. eigenvalues --    0.02698   0.03687   0.05019   0.05360   0.06253
 Alpha virt. eigenvalues --    0.06941   0.07805   0.08199   0.08710   0.10226

  Beta  occ. eigenvalues --  -19.68788 -19.68725 -19.63719 -10.71188 -10.60974
  Beta  occ. eigenvalues --  -10.58822 -10.57533 -10.54102  -1.26181  -1.16897
  Beta  occ. eigenvalues --   -1.14998  -0.90462  -0.86556  -0.77926  -0.70223
  Beta  occ. eigenvalues --   -0.64728  -0.63222  -0.58919  -0.56918  -0.54226
  Beta  occ. eigenvalues --   -0.51596  -0.49748  -0.47110  -0.45736  -0.43459
  Beta  occ. eigenvalues --   -0.42395  -0.39551  -0.38986  -0.36756  -0.36134
  Beta virt. eigenvalues --   -0.16720  -0.01328  -0.00222   0.00275   0.01710
  Beta virt. eigenvalues --    0.02327   0.02879   0.03849   0.05356   0.05683
  Beta virt. eigenvalues --    0.06563   0.07019   0.07826   0.08270   0.08757

 Mulliken charges and spin densities:
               1          2
     1  O   -0.296688   0.484743
     2  H    0.269980  -0.011601
     3  C   -0.641740   0.577884
     4  H    0.433147  -0.038562
     5  C    1.112881   0.056580
     6  C   -0.904926  -0.069115
     7  O   -0.208603   0.001397
     8  O    0.011089   0.000054
     9  C   -0.281516  -0.001364
    10  C   -0.403148   0.000226
    11  H    0.197787  -0.000138
    12  H    0.193755   0.000097
    13  H    0.165962  -0.000020
    14  H    0.167538  -0.000008
    15  H    0.184481  -0.000172
 Sum of Mulliken charges =  -0.00000   1.00000

 Dipole moment (field-independent basis, Debye):
    X=             -1.0595    Y=             -0.3084    Z=             -0.9166  Tot=              1.4345
 Quadrupole moment (field-independent basis, Debye-Ang):
   XX=            -36.7499   YY=            -52.0927   ZZ=            -48.0909
   XY=              7.9853   XZ=             -3.0498   YZ=             -0.3622

  Exact polarizability: 139.642  -7.594  61.238   2.665   0.515  50.628
 Approx polarizability: 123.836 -13.022  79.869   3.842   1.555  57.748

 ******    1 imaginary frequencies (negative Signs) ******

                      1                      2                      3
                      A                      A                      A
 Frequencies --  -1211.8572                34.3110                54.9214
 Red. masses --      1.0306                 3.9216                 6.7710
 Frc consts  --      0.8917                 0.0027                 0.0120
 IR Inten    --    473.8745                 9.9818                 1.4677

                      4                      5                      6
                      A                      A                      A
 Frequencies --     83.2092               116.7643               149.6558
 Red. masses --      2.9180                 3.3677                 3.5206
 Frc consts  --      0.0119                 0.0271                 0.0465
 IR Inten    --      6.9982                 1.9107                18.7147

                      7                      8                      9
                      A                      A                      A
 Frequencies --    173.0960               223.8681               261.7046
 Red. masses --      1.5462                 1.3056                 4.4012
 Frc consts  --      0.0273                 0.0386                 0.1776
 IR Inten    --     69.0702                 3.7979                12.2972

                     10                     11                     12
                      A                      A                      A
 Frequencies --    333.4800               343.1037               424.7022
 Red. masses --      3.0228                 6.3234                 3.8205
 Frc consts  --      0.1981                 0.4386                 0.4060
 IR Inten    --     11.9406                 5.0208                 2.8839

                     13                     14                     15
                      A                      A                      A
 Frequencies --    561.9981               600.4268               607.3156
 Red. masses --      5.7832                 1.2128                 4.0601
 Frc consts  --      1.0762                 0.2576                 0.8823
 IR Inten    --     13.5210               200.4647                 9.4855

                     16                     17                     18
                      A                      A                      A
 Frequencies --    776.5104               798.2502               893.7368
 Red. masses --      9.5771                 1.2232                 3.1218
 Frc consts  --      3.4024                 0.4592                 1.4692
 IR Inten    --     19.6776                 3.5087                 8.0889

                     19                     20                     21
                      A                      A                      A
 Frequencies --    927.2613              1074.4265              1127.1409
 Red. masses --      2.7425                 3.9421                 2.0660
 Frc consts  --      1.3893                 2.6812                 1.5465
 IR Inten    --      1.9134                27.3787                23.6766

                     22                     23                     24
                      A                      A                      A
 Frequencies --   1176.1124              1203.5245              1285.7521
 Red. masses --      1.2803                 1.7625                 4.1986
 Frc consts  --      1.0434                 1.5041                 4.0895
 IR Inten    --     51.3297                 7.8120               787.0071

                     25                     26                     27
                      A                      A                      A
 Frequencies --   1346.9030              1401.1270              1430.6569
 Red. masses --      1.2093                 1.2731                 1.3776
 Frc consts  --      1.2926                 1.4726                 1.6613
 IR Inten    --    104.3934                33.8187                 9.6215

                     28                     29                     30
                      A                      A                      A
 Frequencies --   1492.6504              1501.5342              1513.9416
 Red. masses --      1.0412                 1.0677                 1.0778
 Frc consts  --      1.3668                 1.4183                 1.4555
 IR Inten    --     11.7439                 4.3564                18.3235

                     31                     32                     33
                      A                      A                      A
 Frequencies --   1634.0488              1837.6767              2277.1334
 Red. masses --      1.0858                12.0709                10.1463
 Frc consts  --      1.7081                24.0175                30.9980
 IR Inten    --    440.8324               358.1407                29.0733

                     34                     35                     36
                      A                      A                      A
 Frequencies --   3076.0075              3108.3967              3151.5360
 Red. masses --      1.0354                 1.0608                 1.1014
 Frc consts  --      5.7718                 6.0388                 6.4455
 IR Inten    --     10.3659                18.4564                15.3699

                     37                     38                     39
                      A                      A                      A
 Frequencies --   3155.3411              3176.1065              3829.9700
 Red. masses --      1.1049                 1.1074                 1.0666
 Frc consts  --      6.4811                 6.5818                 9.2181
 IR Inten    --      2.0344                14.7912               148.5117

 - Thermochemistry -
 -------------------
 Temperature   298.150 Kelvin.  Pressure   1.00000 Atm.
 Atom     1 has atomic number  8 and mass  15.99491

 Molecular mass:   115.03952 amu.
 Principal axes and moments of inertia in atomic units:
                           1         2         3
     Eigenvalues --   286.986012618.861692731.46123
           X            0.99993   0.00852  -0.00840
           Y           -0.00860   0.99992  -0.00959
           Z            0.00832   0.00966   0.99992
 This molecule is an asymmetric top.
 Rotational symmetry number  1.
 Rotational temperatures (Kelvin)      0.30181     0.03307     0.03171
 Rotational constants (GHZ):           6.28860     0.68913     0.66072
    1 imaginary frequencies ignored.
 Zero-point vibrational energy     282105.2 (Joules/Mol)
                                   67.42475 (Kcal/Mol)
 Warning -- explicit consideration of  14 degrees of freedom as
           vibrations may cause significant error
 Vibrational temperatures:     49.37    79.02   119.72   168.00   215.32
          (Kelvin)            249.05   322.10   376.53   479.80   493.65
                              611.05   808.59   863.88   873.79  1117.23
                             1148.50  1285.89  1334.12  1545.86  1621.70
                             1692.16  1731.60  1849.91  1937.89  2015.91
                             2058.40  2147.59  2160.37  2178.22  2351.03
                             2644.01  3276.29  4425.69  4472.29  4534.36
                             4539.83  4569.71  5510.47

 Zero-point correction=                           0.107448 (Hartree/Particle)
 Thermal correction to Energy=                    0.117626
 Thermal correction to Enthalpy=                  0.118570
 Thermal correction to Gibbs Free Energy=         0.070008
 Sum of electronic and zero-point Energies=           -420.067174
 Sum of electronic and thermal Energies=              -420.056996
 Sum of electronic and thermal Enthalpies=            -420.056052
 Sum of electronic and thermal Free Energies=         -420.104614

                     E (Thermal)             CV                S
                      KCal/Mol        Cal/Mol-Kelvin    Cal/Mol-Kelvin
 Total                   73.812             32.996            102.208
 Electronic               0.000              0.000              1.377
 Translational            0.889              2.981             40.136
 Rotational               0.889              2.981             29.108
 Vibrational             72.034             27.034             31.587
 Vibration     1          0.594              1.983              5.563
 Vibration     2          0.596              1.976              4.632
 Vibration     3          0.600              1.961              3.814
 Vibration     4          0.608              1.935              3.153
 Vibration     5          0.618              1.903              2.677
 Vibration     6          0.627              1.876              2.402
 Vibration     7          0.649              1.805              1.928
 Vibration     8          0.669              1.743              1.650
 Vibration     9          0.715              1.609              1.243
 Vibration    10          0.722              1.589              1.198
 Vibration    11          0.787              1.417              0.876
 Vibration    12          0.918              1.114              0.520
 Vibration    13          0.959              1.031              0.449
 Vibration    14          0.966              1.016              0.437

 1\1\GINC-AJ\Freq\UM062X\6-311++G(d,p)\C5H7O3(2)\AAYUSH\16-Aug-2025\0\\
 # freq 6-311++g(d,p) m062x\\Title Card Required\\0,2\O,4.496569,-0.267
 776,0.332842\H,4.541825,0.633407,-0.020926\C,2.200849,-0.324203,-0.064
 565\H,3.540187,-0.642911,-0.037413\C,1.04212,0.012984,-0.093846\C,-0.3
 65559,0.389905,-0.177274\O,-0.751949,1.518513,-0.050713\O,-1.134532,-0
 .670262,-0.412434\C,-2.553465,-0.419705,-0.497691\C,-3.168154,-0.29736
 6,0.882559\H,-2.940312,-1.282419,-1.036804\H,-2.713494,0.482346,-1.089
 304\H,-4.250045,-0.183707,0.791168\H,-2.962965,-1.192678,1.471142\H,-2

 Normal termination of Gaussian 16 at Sat Aug 16 14:23:19 2025.
