 Gaussian 16, Revision A.03,
 Gaussian 16:  ES64L-G16RevA.03 25-Dec-2016

 -------------------
 # freq 6-31+g m062x
 -------------------

 -------------------
 Title Card Required
 -------------------
 Symbolic Z-matrix:
 Charge =  0 Multiplicity = 2

                         Standard orientation:
 ---------------------------------------------------------------------
 Center     Atomic      Atomic             Coordinates (Angstroms)
 Number     Number       Type             X           Y           Z
 ---------------------------------------------------------------------
      1          8           0        4.565524   -0.256439    0.321194
      2          1           0        4.612907    0.650683   -0.027414
      3          6           0        2.266834   -0.314229   -0.077628
      4          1           0        3.391773   -0.627332   -0.058349
      5          6           0        1.108621    0.022707   -0.106693
      6          6           0       -0.300371    0.403203   -0.188976
      7          8           0       -0.687907    1.531961   -0.063936
      8          8           0       -1.071932   -0.656815   -0.423747
      9          6           0       -2.490519   -0.405188   -0.509004
     10          6           0       -3.105218   -0.281326    0.871199
     11          1           0       -2.878337   -1.268029   -1.047362
     12          1           0       -2.650231    0.496559   -1.101198
     13          1           0       -4.187082   -0.166939    0.779922
     14          1           0       -2.900558   -1.176328    1.460479
     15          1           0       -2.710032    0.590717    1.392444
 ---------------------------------------------------------------------

 SCF Done:  E(UM062X) =  -419.934009778     A.U. after   24 cycles

 The electronic state is 2-A.
 Alpha  occ. eigenvalues --  -19.74184 -19.70800 -19.66409 -10.73104 -10.61733
 Alpha  occ. eigenvalues --  -10.59073 -10.58538 -10.54738  -1.28123  -1.20168
 Alpha  occ. eigenvalues --   -1.18749  -0.91069  -0.87664  -0.78637  -0.71684
 Alpha  occ. eigenvalues --   -0.67585  -0.64431  -0.58555  -0.58362  -0.56877
 Alpha  occ. eigenvalues --   -0.54277  -0.49692  -0.47764  -0.47073  -0.45671
 Alpha  occ. eigenvalues --   -0.44852  -0.42178  -0.39467  -0.38462  -0.37357
 Alpha  occ. eigenvalues --   -0.36475
 Alpha virt. eigenvalues --   -0.01680   0.01121   0.02228   0.03503   0.04293
 Alpha virt. eigenvalues --    0.04794   0.05069   0.06634   0.07575   0.08464
 Alpha virt. eigenvalues --    0.08907   0.09101   0.09429   0.10768   0.12487

  Beta  occ. eigenvalues --  -19.72668 -19.70804 -19.66407 -10.73098 -10.61734
  Beta  occ. eigenvalues --  -10.58687 -10.58426 -10.54738  -1.28124  -1.18748
  Beta  occ. eigenvalues --   -1.14098  -0.90848  -0.87211  -0.78393  -0.70907
  Beta  occ. eigenvalues --   -0.64807  -0.63187  -0.58555  -0.56897  -0.54505
  Beta  occ. eigenvalues --   -0.53120  -0.49677  -0.47076  -0.45502  -0.43570
  Beta  occ. eigenvalues --   -0.42184  -0.39255  -0.38465  -0.36816  -0.36265
  Beta virt. eigenvalues --   -0.14785  -0.01355   0.01619   0.02273   0.03516
  Beta virt. eigenvalues --    0.04700   0.04902   0.05100   0.06736   0.07701
  Beta virt. eigenvalues --    0.08516   0.09021   0.09131   0.09526   0.10972

 Mulliken charges and spin densities:
               1          2
     1  O   -0.401017   0.826005
     2  H    0.414377  -0.028849
     3  C    0.956577   0.164323
     4  H    0.479018  -0.041413
     5  C   -0.223608   0.064176
     6  C   -0.971602   0.016195
     7  O   -0.353063  -0.000108
     8  O   -0.209967  -0.000212
     9  C   -0.249640   0.000032
    10  C   -0.561099  -0.000092
    11  H    0.221076  -0.000013
    12  H    0.232876  -0.000012
    13  H    0.208544  -0.000034
    14  H    0.221063  -0.000002
    15  H    0.236464   0.000004
 Sum of Mulliken charges =  -0.00000   1.00000

 Dipole moment (field-independent basis, Debye):
    X=             -0.4133    Y=             -0.0185    Z=             -0.9319  Tot=              1.0196
 Quadrupole moment (field-independent basis, Debye-Ang):
   XX=            -33.0383   YY=            -53.5452   ZZ=            -48.4096
   XY=              9.2095   XZ=             -3.1313   YZ=             -0.4384

  Exact polarizability: 117.890  -5.553  58.195   2.402   0.404  45.713
 Approx polarizability: 106.649 -12.225  73.773   3.390   1.620  47.223

 ******    5 imaginary frequencies (negative Signs) ******

                      1                      2                      3
                      A                      A                      A
 Frequencies --   -472.4917              -269.6667              -217.8389
 Red. masses --      1.0565                 3.1731                 2.9096
 Frc consts  --      0.1390                 0.1360                 0.0813
 IR Inten    --    134.5505                51.5435                29.4590

                      4                      5                      6
                      A                      A                      A
 Frequencies --   -146.3403               -32.6696                40.0053
 Red. masses --      7.3923                 3.0835                 3.8181
 Frc consts  --      0.0933                 0.0019                 0.0036
 IR Inten    --     12.8113                 0.3202                 5.7912

                      7                      8                      9
                      A                      A                      A
 Frequencies --    105.6770               186.5021               259.9850
 Red. masses --      3.2770                 1.2856                 4.1869
 Frc consts  --      0.0216                 0.0263                 0.1667
 IR Inten    --      5.2220                 1.1603                10.9823

                     10                     11                     12
                      A                      A                      A
 Frequencies --    315.9424               421.7328               523.3123
 Red. masses --      3.1109                 3.8909                 1.5938
 Frc consts  --      0.1830                 0.4077                 0.2572
 IR Inten    --      8.5323                 1.7970               131.8189

                     13                     14                     15
                      A                      A                      A
 Frequencies --    557.1121               640.7004               750.5350
 Red. masses --      3.5984                 5.8569                 2.1516
 Frc consts  --      0.6580                 1.4165                 0.7141
 IR Inten    --     32.4053                12.3239               134.3303

                     16                     17                     18
                      A                      A                      A
 Frequencies --    807.6873               844.1630               893.9366
 Red. masses --      1.4178                 3.0178                 3.1334
 Frc consts  --      0.5450                 1.2670                 1.4753
 IR Inten    --     19.9445                24.4593                30.4024

                     19                     20                     21
                      A                      A                      A
 Frequencies --    934.4721              1097.1835              1134.2558
 Red. masses --      2.3531                 2.3496                 1.6009
 Frc consts  --      1.2107                 1.6665                 1.2135
 IR Inten    --     17.2150                41.1601                81.2435

                     22                     23                     24
                      A                      A                      A
 Frequencies --   1158.6235              1226.5563              1322.2028
 Red. masses --      2.0140                 1.7432                 2.2325
 Frc consts  --      1.5929                 1.5452                 2.2996
 IR Inten    --     54.7509                 1.7346               445.9350

                     25                     26                     27
                      A                      A                      A
 Frequencies --   1368.4929              1441.1421              1455.5424
 Red. masses --      1.5427                 1.3391                 1.2586
 Frc consts  --      1.7023                 1.6386                 1.5710
 IR Inten    --    261.0326                29.3714                18.1641

                     28                     29                     30
                      A                      A                      A
 Frequencies --   1528.0083              1535.4908              1544.6475
 Red. masses --      1.0423                 1.0765                 1.0640
 Frc consts  --      1.4338                 1.4953                 1.4957
 IR Inten    --     14.4216                 7.2231                18.1140

                     31                     32                     33
                      A                      A                      A
 Frequencies --   1617.2949              1906.2393              2451.8888
 Red. masses --      1.3090                11.9421                 7.0127
 Frc consts  --      2.0173                25.5672                24.8391
 IR Inten    --     87.5329               335.0724                37.0007

                     34                     35                     36
                      A                      A                      A
 Frequencies --   3107.8456              3137.7523              3187.5734
 Red. masses --      1.0351                 1.0601                 1.1008
 Frc consts  --      5.8905                 6.1493                 6.5901
 IR Inten    --     13.6591                20.6453                12.7660

                     37                     38                     39
                      A                      A                      A
 Frequencies --   3190.7539              3211.6785              3795.4262
 Red. masses --      1.1022                 1.1052                 1.0660
 Frc consts  --      6.6112                 6.7168                 9.0471
 IR Inten    --      8.1143                17.6986                45.6228

 - Thermochemistry -
 -------------------
 Temperature   298.150 Kelvin.  Pressure   1.00000 Atm.
 Atom     1 has atomic number  8 and mass  15.99491

 Molecular mass:   115.03952 amu.
 Principal axes and moments of inertia in atomic units:
                           1         2         3
     Eigenvalues --   287.026182617.815312730.40420
           X            0.99993   0.00874  -0.00841
           Y           -0.00882   0.99992  -0.00917
           Z            0.00833   0.00925   0.99992
 This molecule is an asymmetric top.
 Rotational symmetry number  1.
 Rotational temperatures (Kelvin)      0.30176     0.03309     0.03172
 Rotational constants (GHZ):           6.28772     0.68941     0.66098
    5 imaginary frequencies ignored.
 Zero-point vibrational energy     285311.5 (Joules/Mol)
                                   68.19109 (Kcal/Mol)
 Warning -- explicit consideration of   8 degrees of freedom as
           vibrations may cause significant error
 Vibrational temperatures:     57.56   152.05   268.33   374.06   454.57
          (Kelvin)            606.78   752.93   801.56   921.83  1079.85
                             1162.08  1214.56  1286.18  1344.50  1578.60
                             1631.94  1667.00  1764.74  1902.35  1968.96
                             2073.48  2094.20  2198.46  2209.23  2222.40
                             2326.93  2742.65  3527.72  4471.50  4514.53
                             4586.21  4590.78  4620.89  5460.77

 Zero-point correction=                           0.108669 (Hartree/Particle)
 Thermal correction to Energy=                    0.115826
 Thermal correction to Enthalpy=                  0.116770
 Thermal correction to Gibbs Free Energy=         0.074914
 Sum of electronic and zero-point Energies=           -419.825340
 Sum of electronic and thermal Energies=              -419.818184
 Sum of electronic and thermal Enthalpies=            -419.817239
 Sum of electronic and thermal Free Energies=         -419.859096

                     E (Thermal)             CV                S
                      KCal/Mol        Cal/Mol-Kelvin    Cal/Mol-Kelvin
 Total                   72.682             24.402             88.094
 Electronic               0.000              0.000              1.377
 Translational            0.889              2.981             40.136
 Rotational               0.889              2.981             29.108
 Vibrational             70.905             18.441             17.473
 Vibration     1          0.594              1.981              5.259
 Vibration     2          0.605              1.945              3.347
 Vibration     3          0.632              1.858              2.262
 Vibration     4          0.668              1.746              1.662
 Vibration     5          0.703              1.643              1.331
 Vibration     6          0.784              1.423              0.886
 Vibration     7          0.878              1.198              0.602
 Vibration     8          0.913              1.124              0.530

 Normal termination of Gaussian 16 at Fri Jun 20 12:18:59 2025.
