 Gaussian 16, Revision A.03,
 Gaussian 16:  ES64L-G16RevA.03 25-Dec-2016

 -------------------
 # freq 6-31+g m062x
 -------------------

 -------------------
 Title Card Required
 -------------------
 Symbolic Z-matrix:
 Charge =  0 Multiplicity = 2

                         Standard orientation:
 ---------------------------------------------------------------------
 Center     Atomic      Atomic             Coordinates (Angstroms)
 Number     Number       Type             X           Y           Z
 ---------------------------------------------------------------------
      1          8           0        4.564090   -0.256626    0.320871
      2          1           0        4.611609    0.650114   -0.027930
      3          6           0        2.266784   -0.314002   -0.077565
      4          1           0        3.417580   -0.624677   -0.055054
      5          6           0        1.108089    0.023032   -0.106630
      6          6           0       -0.300822    0.403175   -0.188978
      7          8           0       -0.688159    1.531920   -0.063594
      8          8           0       -1.072108   -0.656781   -0.423937
      9          6           0       -2.490733   -0.405214   -0.509146
     10          6           0       -3.105413   -0.281707    0.871085
     11          1           0       -2.878468   -1.267952   -1.047714
     12          1           0       -2.650450    0.496657   -1.101144
     13          1           0       -4.187276   -0.167351    0.779818
     14          1           0       -2.900720   -1.176836    1.460154
     15          1           0       -2.710294    0.590237    1.392551
 ---------------------------------------------------------------------

 SCF Done:  E(UM062X) =  -419.931938993     A.U. after   24 cycles

 The electronic state is 2-A.
 Alpha  occ. eigenvalues --  -19.74142 -19.70823 -19.66437 -10.73132 -10.61749
 Alpha  occ. eigenvalues --  -10.59309 -10.58601 -10.54750  -1.28153  -1.20292
 Alpha  occ. eigenvalues --   -1.18778  -0.91103  -0.87695  -0.78650  -0.71670
 Alpha  occ. eigenvalues --   -0.67697  -0.64464  -0.58579  -0.58281  -0.56900
 Alpha  occ. eigenvalues --   -0.54296  -0.49710  -0.47695  -0.47090  -0.45645
 Alpha  occ. eigenvalues --   -0.44584  -0.42185  -0.39492  -0.38483  -0.37414
 Alpha  occ. eigenvalues --   -0.36524
 Alpha virt. eigenvalues --   -0.01725   0.01136   0.02218   0.03494   0.04260
 Alpha virt. eigenvalues --    0.04782   0.05060   0.06625   0.07560   0.08457
 Alpha virt. eigenvalues --    0.08899   0.09097   0.09414   0.10753   0.12486

  Beta  occ. eigenvalues --  -19.72665 -19.70827 -19.66436 -10.73124 -10.61749
  Beta  occ. eigenvalues --  -10.58839 -10.58517 -10.54750  -1.28153  -1.18778
  Beta  occ. eigenvalues --   -1.14506  -0.90860  -0.87196  -0.78389  -0.70882
  Beta  occ. eigenvalues --   -0.64811  -0.63253  -0.58580  -0.56924  -0.54486
  Beta  occ. eigenvalues --   -0.52891  -0.49695  -0.47092  -0.45519  -0.43637
  Beta  occ. eigenvalues --   -0.42200  -0.39262  -0.38487  -0.36809  -0.36258
  Beta virt. eigenvalues --   -0.15206  -0.01361   0.01624   0.02266   0.03509
  Beta virt. eigenvalues --    0.04691   0.04882   0.05093   0.06728   0.07697
  Beta virt. eigenvalues --    0.08508   0.09009   0.09122   0.09522   0.10960

 Mulliken charges and spin densities:
               1          2
     1  O   -0.411025   0.796913
     2  H    0.415750  -0.027938
     3  C    1.015437   0.151727
     4  H    0.483080  -0.044299
     5  C   -0.269534   0.101443
     6  C   -0.980586   0.022803
     7  O   -0.352908  -0.000269
     8  O   -0.209387  -0.000269
     9  C   -0.250026   0.000077
    10  C   -0.561038  -0.000122
    11  H    0.221158  -0.000015
    12  H    0.232897  -0.000016
    13  H    0.208606  -0.000039
    14  H    0.221113  -0.000002
    15  H    0.236463   0.000005
 Sum of Mulliken charges =  -0.00000   1.00000

 Dipole moment (field-independent basis, Debye):
    X=             -0.4526    Y=             -0.0168    Z=             -0.9420  Tot=              1.0452
 Quadrupole moment (field-independent basis, Debye-Ang):
   XX=            -33.2949   YY=            -53.5505   ZZ=            -48.4276
   XY=              9.2066   XZ=             -3.1809   YZ=             -0.4387

  Exact polarizability: 120.919  -5.763  58.288   2.649   0.399  45.787
 Approx polarizability: 108.309 -12.416  73.940   3.563   1.651  47.323

 ******    5 imaginary frequencies (negative Signs) ******

                      1                      2                      3
                      A                      A                      A
 Frequencies --   -651.3560              -471.4536              -209.3605
 Red. masses --      1.5324                 1.0547                 3.1350
 Frc consts  --      0.3830                 0.1381                 0.0810
 IR Inten    --    108.0028               134.3704                47.2998

                      4                      5                      6
                      A                      A                      A
 Frequencies --   -159.0574               -32.3494                42.7658
 Red. masses --      6.8036                 3.0523                 3.8388
 Frc consts  --      0.1014                 0.0019                 0.0041
 IR Inten    --     10.5549                 0.2211                 5.8447

                      7                      8                      9
                      A                      A                      A
 Frequencies --    108.5759               186.0791               264.4637
 Red. masses --      3.3224                 1.2907                 4.1242
 Frc consts  --      0.0231                 0.0263                 0.1700
 IR Inten    --      5.2726                 1.0377                11.6352

                     10                     11                     12
                      A                      A                      A
 Frequencies --    316.6682               421.0756               486.1269
 Red. masses --      3.1459                 4.0441                 2.7483
 Frc consts  --      0.1859                 0.4225                 0.3827
 IR Inten    --      8.2119                 2.5710                26.7931

                     13                     14                     15
                      A                      A                      A
 Frequencies --    558.1661               639.9367               730.0689
 Red. masses --      2.3603                 4.6445                 2.3756
 Frc consts  --      0.4333                 1.1206                 0.7460
 IR Inten    --     99.8606                24.0908               151.6731

                     16                     17                     18
                      A                      A                      A
 Frequencies --    802.1932               832.3788               892.8201
 Red. masses --      1.8805                 2.4271                 2.8631
 Frc consts  --      0.7130                 0.9908                 1.3447
 IR Inten    --     34.9239                23.0393                29.3103

                     19                     20                     21
                      A                      A                      A
 Frequencies --    928.8246              1042.9512              1118.2020
 Red. masses --      2.1786                 1.6599                 3.4909
 Frc consts  --      1.1074                 1.0638                 2.5717
 IR Inten    --     24.0802                90.4529                20.2966

                     22                     23                     24
                      A                      A                      A
 Frequencies --   1157.9116              1226.9392              1324.1381
 Red. masses --      2.0912                 1.7525                 2.1398
 Frc consts  --      1.6519                 1.5543                 2.2105
 IR Inten    --     34.6028                 1.8743               412.1450

                     25                     26                     27
                      A                      A                      A
 Frequencies --   1369.0567              1440.4111              1455.4098
 Red. masses --      1.5682                 1.3197                 1.2523
 Frc consts  --      1.7318                 1.6133                 1.5629
 IR Inten    --    265.4761                17.4354                22.5717

                     28                     29                     30
                      A                      A                      A
 Frequencies --   1492.1538              1528.0152              1535.9594
 Red. masses --      1.2539                 1.0423                 1.0795
 Frc consts  --      1.6449                 1.4338                 1.5005
 IR Inten    --    164.1665                14.2743                10.7025

                     31                     32                     33
                      A                      A                      A
 Frequencies --   1544.8709              1905.5500              2415.5265
 Red. masses --      1.0678                12.2789                 9.0519
 Frc consts  --      1.5015                26.2693                31.1180
 IR Inten    --     26.2299               329.8411                48.2623

                     34                     35                     36
                      A                      A                      A
 Frequencies --   3107.8757              3137.8014              3187.6405
 Red. masses --      1.0351                 1.0601                 1.1008
 Frc consts  --      5.8906                 6.1495                 6.5903
 IR Inten    --     13.6700                20.6624                12.8093

                     37                     38                     39
                      A                      A                      A
 Frequencies --   3190.7935              3211.7246              3799.4189
 Red. masses --      1.1022                 1.1052                 1.0658
 Frc consts  --      6.6114                 6.7170                 9.0652
 IR Inten    --      8.0910                17.7043                51.0220

 - Thermochemistry -
 -------------------
 Temperature   298.150 Kelvin.  Pressure   1.00000 Atm.
 Atom     1 has atomic number  8 and mass  15.99491

 Molecular mass:   115.03952 amu.
 Principal axes and moments of inertia in atomic units:
                           1         2         3
     Eigenvalues --   287.004012617.767892730.35497
           X            0.99993   0.00873  -0.00840
           Y           -0.00881   0.99992  -0.00928
           Z            0.00831   0.00935   0.99992
 This molecule is an asymmetric top.
 Rotational symmetry number  1.
 Rotational temperatures (Kelvin)      0.30179     0.03309     0.03172
 Rotational constants (GHZ):           6.28821     0.68942     0.66099
    5 imaginary frequencies ignored.
 Zero-point vibrational energy     283529.9 (Joules/Mol)
                                   67.76527 (Kcal/Mol)
 Warning -- explicit consideration of   8 degrees of freedom as
           vibrations may cause significant error
 Vibrational temperatures:     61.53   156.22   267.73   380.50   455.61
          (Kelvin)            605.83   699.43   803.08   920.73  1050.41
                             1154.18  1197.61  1284.57  1336.37  1500.57
                             1608.84  1665.98  1765.29  1905.14  1969.77
                             2072.43  2094.01  2146.88  2198.47  2209.90
                             2222.72  2741.66  3475.40  4471.54  4514.60
                             4586.30  4590.84  4620.96  5466.52

 Zero-point correction=                           0.107991 (Hartree/Particle)
 Thermal correction to Energy=                    0.115180
 Thermal correction to Enthalpy=                  0.116124
 Thermal correction to Gibbs Free Energy=         0.074297
 Sum of electronic and zero-point Energies=           -419.823948
 Sum of electronic and thermal Energies=              -419.816759
 Sum of electronic and thermal Enthalpies=            -419.815815
 Sum of electronic and thermal Free Energies=         -419.857642

                     E (Thermal)             CV                S
                      KCal/Mol        Cal/Mol-Kelvin    Cal/Mol-Kelvin
 Total                   72.276             24.637             88.033
 Electronic               0.000              0.000              1.377
 Translational            0.889              2.981             40.136
 Rotational               0.889              2.981             29.107
 Vibrational             70.499             18.675             17.413
 Vibration     1          0.595              1.980              5.127
 Vibration     2          0.606              1.942              3.294
 Vibration     3          0.632              1.859              2.267
 Vibration     4          0.671              1.738              1.632
 Vibration     5          0.704              1.642              1.327
 Vibration     6          0.784              1.424              0.888
 Vibration     7          0.842              1.281              0.694
 Vibration     8          0.914              1.122              0.528

 Normal termination of Gaussian 16 at Fri Jun 20 12:30:46 2025.
