 Gaussian 16, Revision A.03,
 Gaussian 16:  ES64L-G16RevA.03 25-Dec-2016

 -------------------
 # freq 6-31+g m062x
 -------------------

 -------------------
 Title Card Required
 -------------------
 Symbolic Z-matrix:
 Charge =  0 Multiplicity = 2

                         Standard orientation:
 ---------------------------------------------------------------------
 Center     Atomic      Atomic             Coordinates (Angstroms)
 Number     Number       Type             X           Y           Z
 ---------------------------------------------------------------------
      1          8           0        4.561764   -0.245113    0.331663
      2          1           0        4.586255    0.635441   -0.061372
      3          6           0        2.250231   -0.305607   -0.070641
      4          1           0        3.843710   -0.728541   -0.149536
      5          6           0        1.093556    0.032179   -0.102846
      6          6           0       -0.310031    0.403378   -0.190911
      7          8           0       -0.695283    1.532283   -0.066726
      8          8           0       -1.075294   -0.658965   -0.422223
      9          6           0       -2.494058   -0.410381   -0.508808
     10          6           0       -3.108914   -0.284169    0.870916
     11          1           0       -2.879927   -1.275132   -1.045293
     12          1           0       -2.654700    0.489657   -1.103347
     13          1           0       -4.190888   -0.171996    0.778883
     14          1           0       -2.902916   -1.177367    1.462414
     15          1           0       -2.715728    0.589895    1.390289
 ---------------------------------------------------------------------

 SCF Done:  E(UM062X) =  -419.916695985     A.U. after   25 cycles

 The electronic state is 2-A.
 Alpha  occ. eigenvalues --  -19.71254 -19.70536 -19.66917 -10.73589 -10.62621
 Alpha  occ. eigenvalues --  -10.62043 -10.59456 -10.54983  -1.28675  -1.20629
 Alpha  occ. eigenvalues --   -1.19305  -0.92060  -0.88536  -0.79091  -0.71508
 Alpha  occ. eigenvalues --   -0.67813  -0.64971  -0.59029  -0.57366  -0.55039
 Alpha  occ. eigenvalues --   -0.54031  -0.50067  -0.47429  -0.46741  -0.45876
 Alpha  occ. eigenvalues --   -0.42784  -0.42084  -0.40202  -0.38943  -0.38608
 Alpha  occ. eigenvalues --   -0.37363
 Alpha virt. eigenvalues --   -0.02442   0.01351   0.02092   0.03305   0.03721
 Alpha virt. eigenvalues --    0.04566   0.04816   0.06404   0.07276   0.08288
 Alpha virt. eigenvalues --    0.08774   0.09021   0.09159   0.10539   0.12345

  Beta  occ. eigenvalues --  -19.71265 -19.69797 -19.66924 -10.73564 -10.62044
  Beta  occ. eigenvalues --  -10.61442 -10.59366 -10.54984  -1.28685  -1.19325
  Beta  occ. eigenvalues --   -1.18261  -0.91359  -0.87473  -0.78599  -0.70935
  Beta  occ. eigenvalues --   -0.65708  -0.64891  -0.59054  -0.57419  -0.54658
  Beta  occ. eigenvalues --   -0.50058  -0.49765  -0.47435  -0.45851  -0.43110
  Beta  occ. eigenvalues --   -0.42444  -0.39601  -0.38916  -0.37073  -0.36516
  Beta virt. eigenvalues --   -0.15859  -0.01270   0.01732   0.02197   0.03353
  Beta virt. eigenvalues --    0.04334   0.04687   0.04929   0.06536   0.07595
  Beta virt. eigenvalues --    0.08318   0.08770   0.09065   0.09441   0.10804

 Mulliken charges and spin densities:
               1          2
     1  O   -0.591598   0.284143
     2  H    0.436118  -0.010807
     3  C    1.580981   0.602243
     4  H    0.475042  -0.020738
     5  C   -0.505537   0.118402
     6  C   -1.146248   0.032435
     7  O   -0.350570  -0.003992
     8  O   -0.207233  -0.001441
     9  C   -0.255519   0.000672
    10  C   -0.559253  -0.000688
    11  H    0.222221  -0.000057
    12  H    0.233436  -0.000074
    13  H    0.209704  -0.000115
    14  H    0.221788  -0.000005
    15  H    0.236667   0.000025
 Sum of Mulliken charges =  -0.00000   1.00000

 Dipole moment (field-independent basis, Debye):
    X=             -1.3821    Y=             -0.3456    Z=             -1.5222  Tot=              2.0848
 Quadrupole moment (field-independent basis, Debye-Ang):
   XX=            -39.8185   YY=            -52.9602   ZZ=            -48.4428
   XY=              7.8506   XZ=             -5.9179   YZ=             -0.1414

  Exact polarizability: 139.618  -7.397  60.313   2.192   0.736  47.000
 Approx polarizability: 114.073 -13.294  75.501   3.510   2.431  48.343

 ******    5 imaginary frequencies (negative Signs) ******

                      1                      2                      3
                      A                      A                      A
 Frequencies --   -757.8829              -506.0817              -184.8207
 Red. masses --      1.0225                 1.0517                 1.6785
 Frc consts  --      0.3460                 0.1587                 0.0338
 IR Inten    --     79.9572               151.7448               114.0223

                      4                      5                      6
                      A                      A                      A
 Frequencies --    -76.5213               -24.1583                36.9169
 Red. masses --      6.8299                 3.0059                 4.9599
 Frc consts  --      0.0236                 0.0010                 0.0040
 IR Inten    --      5.8799                 0.7311                18.4721

                      7                      8                      9
                      A                      A                      A
 Frequencies --     59.1731               170.4058               179.7576
 Red. masses --      4.3711                 2.4722                 1.8935
 Frc consts  --      0.0090                 0.0423                 0.0360
 IR Inten    --      6.3782                69.5401                45.7475

                     10                     11                     12
                      A                      A                      A
 Frequencies --    201.8063               294.7855               319.5126
 Red. masses --      2.3782                 4.2360                 3.6428
 Frc consts  --      0.0571                 0.2169                 0.2191
 IR Inten    --     13.1637                25.8706                51.9547

                     13                     14                     15
                      A                      A                      A
 Frequencies --    421.2021               578.0581               615.6176
 Red. masses --      4.0924                 5.1204                 9.1588
 Frc consts  --      0.4278                 1.0081                 2.0451
 IR Inten    --     10.4778                 2.6875                63.8136

                     16                     17                     18
                      A                      A                      A
 Frequencies --    790.6404               815.3566               899.4541
 Red. masses --      9.8129                 1.2853                 3.3478
 Frc consts  --      3.6141                 0.5035                 1.5957
 IR Inten    --     15.9037                 6.5150                10.0178

                     19                     20                     21
                      A                      A                      A
 Frequencies --    948.4059              1112.7822              1157.5965
 Red. masses --      2.6655                 4.2157                 2.0884
 Frc consts  --      1.4126                 3.0756                 1.6488
 IR Inten    --      2.0784                 7.3422                23.6935

                     22                     23                     24
                      A                      A                      A
 Frequencies --   1227.5757              1327.2465              1371.9228
 Red. masses --      1.7619                 2.0692                 1.6846
 Frc consts  --      1.5644                 2.1476                 1.8681
 IR Inten    --      5.0801               454.6114               348.0581

                     25                     26                     27
                      A                      A                      A
 Frequencies --   1443.3020              1456.3888              1467.7474
 Red. masses --      1.3656                 1.2652                 1.1058
 Frc consts  --      1.6761                 1.5811                 1.4036
 IR Inten    --     52.3228                17.0201                67.2358

                     28                     29                     30
                      A                      A                      A
 Frequencies --   1528.1633              1536.0496              1544.9499
 Red. masses --      1.0422                 1.0758                 1.0681
 Frc consts  --      1.4339                 1.4955                 1.5020
 IR Inten    --     14.8377                 7.2962                22.8470

                     31                     32                     33
                      A                      A                      A
 Frequencies --   1908.1251              2308.3215              3108.2359
 Red. masses --     12.4159                11.3317                 1.0351
 Frc consts  --     26.6344                35.5743                 5.8920
 IR Inten    --    308.0819               223.2242                13.7881

                     34                     35                     36
                      A                      A                      A
 Frequencies --   3138.1628              3188.3294              3191.3029
 Red. masses --      1.0602                 1.1008                 1.1022
 Frc consts  --      6.1517                 6.5929                 6.6134
 IR Inten    --     20.6795                15.4787                 8.6303

                     37                     38                     39
                      A                      A                      A
 Frequencies --   3204.3956              3212.2546              3902.3072
 Red. masses --      1.0683                 1.1052                 1.0673
 Frc consts  --      6.4631                 6.7189                 9.5763
 IR Inten    --    551.0516                16.0131               106.1080

 - Thermochemistry -
 -------------------
 Temperature   298.150 Kelvin.  Pressure   1.00000 Atm.
 Atom     1 has atomic number  8 and mass  15.99491

 Molecular mass:   115.03952 amu.
 Principal axes and moments of inertia in atomic units:
                           1         2         3
     Eigenvalues --   287.785312625.970362738.68658
           X            0.99993   0.00768  -0.00912
           Y           -0.00774   0.99994  -0.00744
           Z            0.00906   0.00751   0.99993
 This molecule is an asymmetric top.
 Rotational symmetry number  1.
 Rotational temperatures (Kelvin)      0.30097     0.03298     0.03163
 Rotational constants (GHZ):           6.27114     0.68727     0.65898
    5 imaginary frequencies ignored.
 Zero-point vibrational energy     291088.8 (Joules/Mol)
                                   69.57190 (Kcal/Mol)
 Warning -- explicit consideration of  10 degrees of freedom as
           vibrations may cause significant error
 Vibrational temperatures:     53.12    85.14   245.18   258.63   290.35
          (Kelvin)            424.13   459.71   606.02   831.70   885.74
                             1137.56  1173.12  1294.11  1364.54  1601.05
                             1665.52  1766.21  1909.61  1973.89  2076.59
                             2095.42  2111.76  2198.69  2210.03  2222.84
                             2745.37  3321.16  4472.06  4515.12  4587.29
                             4591.57  4610.41  4621.72  5614.55

 Zero-point correction=                           0.110870 (Hartree/Particle)
 Thermal correction to Energy=                    0.118939
 Thermal correction to Enthalpy=                  0.119884
 Thermal correction to Gibbs Free Energy=         0.075744
 Sum of electronic and zero-point Energies=           -419.805826
 Sum of electronic and thermal Energies=              -419.797757
 Sum of electronic and thermal Enthalpies=            -419.796812
 Sum of electronic and thermal Free Energies=         -419.840952

                     E (Thermal)             CV                S
                      KCal/Mol        Cal/Mol-Kelvin    Cal/Mol-Kelvin
 Total                   74.636             25.976             92.900
 Electronic               0.000              0.000              1.377
 Translational            0.889              2.981             40.136
 Rotational               0.889              2.981             29.116
 Vibrational             72.858             20.014             22.271
 Vibration     1          0.594              1.982              5.418
 Vibration     2          0.597              1.974              4.485
 Vibration     3          0.626              1.879              2.431
 Vibration     4          0.629              1.867              2.331
 Vibration     5          0.639              1.837              2.117
 Vibration     6          0.689              1.683              1.446
 Vibration     7          0.705              1.636              1.313
 Vibration     8          0.784              1.424              0.888
 Vibration     9          0.935              1.079              0.489
 Vibration    10          0.975              0.999              0.424

 Normal termination of Gaussian 16 at Fri Jun 20 12:20:26 2025.
