 Gaussian 16, Revision A.03,
 Gaussian 16:  ES64L-G16RevA.03 25-Dec-2016

 --------------------------
 # ccsd(t)/6-311++g(d,p) sp
 --------------------------

 -------------------
 Title Card Required
 -------------------
 Symbolic Z-matrix:
 Charge =  0 Multiplicity = 2

                         Standard orientation:
 ---------------------------------------------------------------------
 Center     Atomic      Atomic             Coordinates (Angstroms)
 Number     Number       Type             X           Y           Z
 ---------------------------------------------------------------------
      1          8           0        4.561764   -0.245113    0.331663
      2          1           0        4.586255    0.635441   -0.061372
      3          6           0        2.250231   -0.305607   -0.070641
      4          1           0        3.843710   -0.728541   -0.149536
      5          6           0        1.093556    0.032179   -0.102846
      6          6           0       -0.310031    0.403378   -0.190911
      7          8           0       -0.695283    1.532283   -0.066726
      8          8           0       -1.075294   -0.658965   -0.422223
      9          6           0       -2.494058   -0.410381   -0.508808
     10          6           0       -3.108914   -0.284169    0.870916
     11          1           0       -2.879927   -1.275132   -1.045293
     12          1           0       -2.654700    0.489657   -1.103347
     13          1           0       -4.190888   -0.171996    0.778883
     14          1           0       -2.902916   -1.177367    1.462414
     15          1           0       -2.715728    0.589895    1.390289
 ---------------------------------------------------------------------

 SCF Done:  E(UHF) =  -417.943709410     A.U. after   33 cycles
 E2 =    -0.1261391396D+01 EUMP2 =    -0.41920510080647D+03
 CCSD(T)= -0.41932519180D+03

 The electronic state is 2-A.
 Alpha  occ. eigenvalues --  -20.62132 -20.60067 -20.56752 -11.42538 -11.31988
 Alpha  occ. eigenvalues --  -11.30360 -11.26191 -11.23105  -1.49021  -1.39372
 Alpha  occ. eigenvalues --   -1.38566  -1.09536  -1.05365  -0.93641  -0.84477
 Alpha  occ. eigenvalues --   -0.78400  -0.76603  -0.70194  -0.67267  -0.66657
 Alpha  occ. eigenvalues --   -0.63907  -0.59018  -0.57686  -0.55273  -0.54774
 Alpha  occ. eigenvalues --   -0.53782  -0.51184  -0.48923  -0.47467  -0.46040
 Alpha  occ. eigenvalues --   -0.45890
 Alpha virt. eigenvalues --    0.03929   0.04804   0.05646   0.06365   0.07402
 Alpha virt. eigenvalues --    0.07904   0.08319   0.09087   0.11081   0.12182
 Alpha virt. eigenvalues --    0.12937   0.13285   0.14336   0.15303   0.16064

  Beta  occ. eigenvalues --  -20.62150 -20.58872 -20.57396 -11.42042 -11.30367
  Beta  occ. eigenvalues --  -11.27999 -11.26384 -11.23106  -1.49339  -1.39605
  Beta  occ. eigenvalues --   -1.35486  -1.08873  -1.03964  -0.91948  -0.83365
  Beta  occ. eigenvalues --   -0.76826  -0.73162  -0.70819  -0.67650  -0.64307
  Beta  occ. eigenvalues --   -0.59488  -0.59072  -0.56433  -0.54866  -0.52067
  Beta  occ. eigenvalues --   -0.51322  -0.49729  -0.48226  -0.44340  -0.43870
  Beta virt. eigenvalues --   -0.00024   0.04009   0.05619   0.06150   0.06380
  Beta virt. eigenvalues --    0.07501   0.08011   0.09070   0.09986   0.11590
  Beta virt. eigenvalues --    0.12655   0.13246   0.13513   0.14862   0.15527

 Mulliken charges and spin densities:
               1          2
     1  O   -0.377179   0.187140
     2  H    0.271745  -0.011201
     3  C   -0.546485   1.976004
     4  H    0.344416  -0.077708
     5  C    1.311267  -1.086365
     6  C   -0.919343   0.141633
     7  O   -0.272408  -0.133160
     8  O   -0.086980   0.003336
     9  C   -0.166710   0.002430
    10  C   -0.360123  -0.001312
    11  H    0.168945  -0.000254
    12  H    0.176415  -0.000139
    13  H    0.137199  -0.000117
    14  H    0.145699  -0.000113
    15  H    0.173542  -0.000173
 Sum of Mulliken charges =  -0.00000   1.00000

 Dipole moment (field-independent basis, Debye):
    X=             -1.8173    Y=             -0.8496    Z=             -1.4937  Tot=              2.5011
 Quadrupole moment (field-independent basis, Debye-Ang):
   XX=            -44.1226   YY=            -51.9001   ZZ=            -47.7653
   XY=              6.7736   XZ=             -5.2614   YZ=             -0.1008

 3355\PMP3-0=-419.2500643\MP4SDQ=-419.258835\CCSD=-419.2704222\CCSD(T)=
 Normal termination of Gaussian 16 at Sun Aug 17 11:18:19 2025.
