 Gaussian 16, Revision A.03,
 Gaussian 16:  ES64L-G16RevA.03 25-Dec-2016

 -------------------
 # freq 6-31+g m062x
 -------------------

 -------------------
 Title Card Required
 -------------------
 Symbolic Z-matrix:
 Charge =  0 Multiplicity = 2

                         Standard orientation:
 ---------------------------------------------------------------------
 Center     Atomic      Atomic             Coordinates (Angstroms)
 Number     Number       Type             X           Y           Z
 ---------------------------------------------------------------------
      1          8           0        4.559874   -0.249632    0.326535
      2          1           0        4.592038    0.639411   -0.048934
      3          6           0        2.254125   -0.307953   -0.073601
      4          1           0        3.761844   -0.688733   -0.104695
      5          6           0        1.096957    0.030147   -0.104077
      6          6           0       -0.308007    0.403173   -0.190225
      7          8           0       -0.693169    1.531999   -0.064403
      8          8           0       -1.074519   -0.657966   -0.423381
      9          6           0       -2.493448   -0.408444   -0.509254
     10          6           0       -3.108120   -0.284387    0.870771
     11          1           0       -2.879683   -1.272119   -1.047188
     12          1           0       -2.653714    0.492672   -1.102233
     13          1           0       -4.190044   -0.171503    0.779044
     14          1           0       -2.902520   -1.178726    1.460669
     15          1           0       -2.714458    0.588572    1.391647
 ---------------------------------------------------------------------

 SCF Done:  E(UM062X) =  -419.916623514     A.U. after   23 cycles

 The electronic state is 2-A.
 Alpha  occ. eigenvalues --  -19.71264 -19.71048 -19.66945 -10.73622 -10.62362
 Alpha  occ. eigenvalues --  -10.62053 -10.59492 -10.54993  -1.28684  -1.20781
 Alpha  occ. eigenvalues --   -1.19312  -0.92009  -0.88509  -0.79092  -0.71614
 Alpha  occ. eigenvalues --   -0.68259  -0.64967  -0.59037  -0.57379  -0.55388
 Alpha  occ. eigenvalues --   -0.54396  -0.50072  -0.47439  -0.46479  -0.45892
 Alpha  occ. eigenvalues --   -0.43002  -0.42258  -0.40177  -0.38936  -0.38564
 Alpha  occ. eigenvalues --   -0.37378
 Alpha virt. eigenvalues --   -0.02418   0.01399   0.02087   0.03308   0.03753
 Alpha virt. eigenvalues --    0.04588   0.04825   0.06412   0.07285   0.08287
 Alpha virt. eigenvalues --    0.08775   0.09007   0.09159   0.10556   0.12333

  Beta  occ. eigenvalues --  -19.71274 -19.70212 -19.66949 -10.73599 -10.62054
  Beta  occ. eigenvalues --  -10.61260 -10.59404 -10.54993  -1.28690  -1.19323
  Beta  occ. eigenvalues --   -1.18045  -0.91354  -0.87502  -0.78624  -0.70985
  Beta  occ. eigenvalues --   -0.65651  -0.64850  -0.59057  -0.57422  -0.54675
  Beta  occ. eigenvalues --   -0.50088  -0.50011  -0.47435  -0.45852  -0.43251
  Beta  occ. eigenvalues --   -0.42468  -0.39616  -0.38921  -0.37126  -0.36560
  Beta virt. eigenvalues --   -0.16645  -0.01404   0.01747   0.02207   0.03349
  Beta virt. eigenvalues --    0.04407   0.04674   0.04915   0.06531   0.07573
  Beta virt. eigenvalues --    0.08323   0.08782   0.09047   0.09407   0.10801

 Mulliken charges and spin densities:
               1          2
     1  O   -0.573879   0.345832
     2  H    0.432642  -0.012670
     3  C    1.559436   0.417018
     4  H    0.487475  -0.026896
     5  C   -0.539175   0.229910
     6  C   -1.119602   0.050461
     7  O   -0.349746  -0.002328
     8  O   -0.206702  -0.001142
     9  C   -0.254892   0.000622
    10  C   -0.559598  -0.000600
    11  H    0.222359  -0.000049
    12  H    0.233465  -0.000070
    13  H    0.209770  -0.000105
    14  H    0.221839  -0.000004
    15  H    0.236608   0.000021
 Sum of Mulliken charges =  -0.00000   1.00000

 Dipole moment (field-independent basis, Debye):
    X=             -1.3641    Y=             -0.2185    Z=             -1.3670  Tot=              1.9435
 Quadrupole moment (field-independent basis, Debye-Ang):
   XX=            -39.4039   YY=            -53.1155   ZZ=            -48.4676
   XY=              8.3911   XZ=             -5.1881   YZ=             -0.2458

  Exact polarizability: 139.753  -7.852  59.948   2.455   0.618  46.719
 Approx polarizability: 116.454 -13.679  75.443   3.805   2.279  48.135

 ******    5 imaginary frequencies (negative Signs) ******

                      1                      2                      3
                      A                      A                      A
 Frequencies --   -820.8957              -504.5426              -178.4165
 Red. masses --      1.0257                 1.0530                 2.0415
 Frc consts  --      0.4073                 0.1579                 0.0383
 IR Inten    --    107.3395               138.6344                85.5937

                      4                      5                      6
                      A                      A                      A
 Frequencies --    -74.6146               -24.1993                48.3192
 Red. masses --      6.7518                 2.9784                 4.3432
 Frc consts  --      0.0221                 0.0010                 0.0060
 IR Inten    --      4.3900                 0.6445                14.3738

                      7                      8                      9
                      A                      A                      A
 Frequencies --     80.9125               180.4493               205.9406
 Red. masses --      4.9799                 1.3516                 3.0842
 Frc consts  --      0.0192                 0.0259                 0.0771
 IR Inten    --      6.4308                12.2217                70.8693

                     10                     11                     12
                      A                      A                      A
 Frequencies --    253.3987               309.1271               347.9391
 Red. masses --      3.1401                 3.1639                 3.4816
 Frc consts  --      0.1188                 0.1781                 0.2483
 IR Inten    --     13.6501                 6.3897               110.0625

                     13                     14                     15
                      A                      A                      A
 Frequencies --    423.7946               581.3305               618.4389
 Red. masses --      4.1537                 5.1371                 8.9618
 Frc consts  --      0.4395                 1.0228                 2.0195
 IR Inten    --     11.8645                 3.1650                61.6437

                     16                     17                     18
                      A                      A                      A
 Frequencies --    794.7094               815.3593               899.1650
 Red. masses --      8.9981                 1.3010                 3.3467
 Frc consts  --      3.3483                 0.5096                 1.5942
 IR Inten    --     14.8770                 6.1241                10.3272

                     19                     20                     21
                      A                      A                      A
 Frequencies --    948.0048              1112.3491              1157.3491
 Red. masses --      2.6614                 4.2227                 2.0848
 Frc consts  --      1.4092                 3.0784                 1.6453
 IR Inten    --      2.4653                 7.0891                22.9202

                     22                     23                     24
                      A                      A                      A
 Frequencies --   1227.3510              1326.2732              1371.1106
 Red. masses --      1.7609                 2.1098                 1.6456
 Frc consts  --      1.5629                 2.1865                 1.8227
 IR Inten    --      5.4815               484.3488               348.2379

                     25                     26                     27
                      A                      A                      A
 Frequencies --   1407.4483              1443.2562              1456.3286
 Red. masses --      1.1230                 1.3701                 1.2655
 Frc consts  --      1.3107                 1.6814                 1.5814
 IR Inten    --     49.6542                47.4668                15.5668

                     28                     29                     30
                      A                      A                      A
 Frequencies --   1528.1520              1535.9924              1544.8874
 Red. masses --      1.0422                 1.0759                 1.0677
 Frc consts  --      1.4339                 1.4955                 1.5015
 IR Inten    --     14.9140                 7.6605                23.0806

                     31                     32                     33
                      A                      A                      A
 Frequencies --   1907.3317              2310.3046              2819.7793
 Red. masses --     12.4150                 9.8069                 1.0896
 Frc consts  --     26.6103                30.8405                 5.1042
 IR Inten    --    309.9035               235.7105               712.3162

                     34                     35                     36
                      A                      A                      A
 Frequencies --   3108.2582              3138.3209              3188.4269
 Red. masses --      1.0351                 1.0602                 1.1007
 Frc consts  --      5.8920                 6.1524                 6.5930
 IR Inten    --     13.1978                19.9573                12.7831

                     37                     38                     39
                      A                      A                      A
 Frequencies --   3191.3540              3212.3264              3888.0672
 Red. masses --      1.1022                 1.1053                 1.0661
 Frc consts  --      6.6138                 6.7199                 9.4950
 IR Inten    --      7.5120                17.3001               113.1100

 - Thermochemistry -
 -------------------
 Temperature   298.150 Kelvin.  Pressure   1.00000 Atm.
 Atom     1 has atomic number  8 and mass  15.99491

 Molecular mass:   115.03952 amu.
 Principal axes and moments of inertia in atomic units:
                           1         2         3
     Eigenvalues --   287.408692623.069372735.73614
           X            0.99993   0.00801  -0.00879
           Y           -0.00808   0.99993  -0.00851
           Z            0.00872   0.00858   0.99993
 This molecule is an asymmetric top.
 Rotational symmetry number  1.
 Rotational temperatures (Kelvin)      0.30136     0.03302     0.03166
 Rotational constants (GHZ):           6.27936     0.68803     0.65969
    5 imaginary frequencies ignored.
 Zero-point vibrational energy     289386.0 (Joules/Mol)
                                   69.16491 (Kcal/Mol)
 Warning -- explicit consideration of  10 degrees of freedom as
           vibrations may cause significant error
 Vibrational temperatures:     69.52   116.42   259.63   296.30   364.58
          (Kelvin)            444.76   500.61   609.75   836.40   889.80
                             1143.41  1173.12  1293.70  1363.97  1600.42
                             1665.17  1765.88  1908.21  1972.72  2025.00
                             2076.52  2095.33  2198.67  2209.95  2222.75
                             2744.22  3324.01  4057.03  4472.09  4515.34
                             4587.44  4591.65  4621.82  5594.06

 Zero-point correction=                           0.110221 (Hartree/Particle)
 Thermal correction to Energy=                    0.118033
 Thermal correction to Enthalpy=                  0.118977
 Thermal correction to Gibbs Free Energy=         0.075861
 Sum of electronic and zero-point Energies=           -419.806402
 Sum of electronic and thermal Energies=              -419.798591
 Sum of electronic and thermal Enthalpies=            -419.797647
 Sum of electronic and thermal Free Energies=         -419.840763

                     E (Thermal)             CV                S
                      KCal/Mol        Cal/Mol-Kelvin    Cal/Mol-Kelvin
 Total                   74.067             25.745             90.745
 Electronic               0.000              0.000              1.377
 Translational            0.889              2.981             40.136
 Rotational               0.889              2.981             29.113
 Vibrational             72.289             19.783             20.119
 Vibration     1          0.595              1.978              4.885
 Vibration     2          0.600              1.962              3.869
 Vibration     3          0.629              1.866              2.324
 Vibration     4          0.640              1.831              2.079
 Vibration     5          0.665              1.757              1.707
 Vibration     6          0.698              1.656              1.367
 Vibration     7          0.726              1.579              1.176
 Vibration     8          0.786              1.418              0.879
 Vibration     9          0.938              1.072              0.483
 Vibration    10          0.978              0.993              0.419

 Normal termination of Gaussian 16 at Fri Jun 20 12:18:14 2025.
