 Gaussian 16, Revision A.03,
 Gaussian 16:  ES64L-G16RevA.03 25-Dec-2016

 -------------------
 # freq 6-31+g m062x
 -------------------

 -------------------
 Title Card Required
 -------------------
 Symbolic Z-matrix:
 Charge =  0 Multiplicity = 2

                         Standard orientation:
 ---------------------------------------------------------------------
 Center     Atomic      Atomic             Coordinates (Angstroms)
 Number     Number       Type             X           Y           Z
 ---------------------------------------------------------------------
      1          8           0        4.561282   -0.246381    0.330205
      2          1           0        4.587612    0.636377   -0.058097
      3          6           0        2.251065   -0.306206   -0.071483
      4          1           0        3.824703   -0.717565   -0.136835
      5          6           0        1.094330    0.031733   -0.103163
      6          6           0       -0.309566    0.403316   -0.190731
      7          8           0       -0.694721    1.532202   -0.065984
      8          8           0       -1.075100   -0.658676   -0.422584
      9          6           0       -2.493919   -0.409840   -0.508952
     10          6           0       -3.108709   -0.284311    0.870868
     11          1           0       -2.879872   -1.274264   -1.045890
     12          1           0       -2.654452    0.490531   -1.103008
     13          1           0       -4.190668   -0.171947    0.778923
     14          1           0       -2.902815   -1.177860    1.461867
     15          1           0       -2.715404    0.589421    1.390712
 ---------------------------------------------------------------------

 SCF Done:  E(UM062X) =  -419.916509291     A.U. after   25 cycles

 The electronic state is 2-A.
 Alpha  occ. eigenvalues --  -19.71266 -19.70604 -19.66935 -10.73609 -10.62588
 Alpha  occ. eigenvalues --  -10.62052 -10.59484 -10.54991  -1.28689  -1.20700
 Alpha  occ. eigenvalues --   -1.19318  -0.92065  -0.88544  -0.79102  -0.71542
 Alpha  occ. eigenvalues --   -0.67963  -0.64980  -0.59041  -0.57379  -0.55097
 Alpha  occ. eigenvalues --   -0.54133  -0.50076  -0.47439  -0.46652  -0.45887
 Alpha  occ. eigenvalues --   -0.42837  -0.42148  -0.40212  -0.38953  -0.38616
 Alpha  occ. eigenvalues --   -0.37384
 Alpha virt. eigenvalues --   -0.02448   0.01371   0.02090   0.03302   0.03723
 Alpha virt. eigenvalues --    0.04569   0.04814   0.06402   0.07273   0.08284
 Alpha virt. eigenvalues --    0.08772   0.09015   0.09154   0.10540   0.12338

  Beta  occ. eigenvalues --  -19.71277 -19.69847 -19.66941 -10.73583 -10.62053
  Beta  occ. eigenvalues --  -10.61424 -10.59395 -10.54992  -1.28697  -1.19336
  Beta  occ. eigenvalues --   -1.18264  -0.91370  -0.87492  -0.78614  -0.70957
  Beta  occ. eigenvalues --   -0.65746  -0.64897  -0.59065  -0.57431  -0.54669
  Beta  occ. eigenvalues --   -0.50067  -0.49812  -0.47442  -0.45858  -0.43137
  Beta  occ. eigenvalues --   -0.42456  -0.39615  -0.38927  -0.37099  -0.36540
  Beta virt. eigenvalues --   -0.16068  -0.01308   0.01739   0.02201   0.03348
  Beta virt. eigenvalues --    0.04355   0.04679   0.04921   0.06530   0.07585
  Beta virt. eigenvalues --    0.08316   0.08769   0.09058   0.09429   0.10801

 Mulliken charges and spin densities:
               1          2
     1  O   -0.589153   0.295198
     2  H    0.435306  -0.011141
     3  C    1.579827   0.558640
     4  H    0.478189  -0.021574
     5  C   -0.515131   0.147151
     6  C   -1.140938   0.036893
     7  O   -0.350274  -0.003564
     8  O   -0.207043  -0.001372
     9  C   -0.255421   0.000662
    10  C   -0.559326  -0.000670
    11  H    0.222286  -0.000056
    12  H    0.233458  -0.000074
    13  H    0.209748  -0.000113
    14  H    0.221816  -0.000005
    15  H    0.236655   0.000024
 Sum of Mulliken charges =  -0.00000   1.00000

 Dipole moment (field-independent basis, Debye):
    X=             -1.3964    Y=             -0.3111    Z=             -1.4833  Tot=              2.0608
 Quadrupole moment (field-independent basis, Debye-Ang):
   XX=            -39.8240   YY=            -52.9965   ZZ=            -48.4482
   XY=              7.9996   XZ=             -5.7358   YZ=             -0.1704

  Exact polarizability: 139.947  -7.565  60.243   2.201   0.704  46.927
 Approx polarizability: 114.625 -13.412  75.487   3.547   2.397  48.275

 ******    5 imaginary frequencies (negative Signs) ******

                      1                      2                      3
                      A                      A                      A
 Frequencies --   -783.6059              -515.5848              -191.4311
 Red. masses --      1.0231                 1.0521                 1.6572
 Frc consts  --      0.3701                 0.1648                 0.0358
 IR Inten    --     82.3284               146.8920               120.0846

                      4                      5                      6
                      A                      A                      A
 Frequencies --    -78.1666               -25.0612                35.6656
 Red. masses --      7.0995                 2.9753                 4.7425
 Frc consts  --      0.0256                 0.0011                 0.0036
 IR Inten    --      6.1096                 0.8054                16.6121

                      7                      8                      9
                      A                      A                      A
 Frequencies --     63.0735               172.6238               181.8527
 Red. masses --      4.5156                 2.4177                 1.7115
 Frc consts  --      0.0106                 0.0424                 0.0333
 IR Inten    --      6.4404                67.6463                35.1593

                     10                     11                     12
                      A                      A                      A
 Frequencies --    209.4782               298.4982               321.9766
 Red. masses --      2.8706                 3.9223                 3.8481
 Frc consts  --      0.0742                 0.2059                 0.2350
 IR Inten    --     14.7805                19.9413                60.5154

                     13                     14                     15
                      A                      A                      A
 Frequencies --    421.7186               578.6167               615.9579
 Red. masses --      4.1056                 5.1286                 9.1463
 Frc consts  --      0.4302                 1.0116                 2.0445
 IR Inten    --     10.7010                 2.6314                63.5454

                     16                     17                     18
                      A                      A                      A
 Frequencies --    791.5016               815.3408               899.3912
 Red. masses --      9.6870                 1.2876                 3.3474
 Frc consts  --      3.5756                 0.5043                 1.5954
 IR Inten    --     15.6514                 6.4400                10.1023

                     19                     20                     21
                      A                      A                      A
 Frequencies --    948.3161              1112.6577              1157.5274
 Red. masses --      2.6659                 4.2182                 2.0874
 Frc consts  --      1.4126                 3.0768                 1.6478
 IR Inten    --      2.1877                 7.2280                23.5346

                     22                     23                     24
                      A                      A                      A
 Frequencies --   1227.5249              1327.0525              1371.7768
 Red. masses --      1.7617                 2.0768                 1.6785
 Frc consts  --      1.5640                 2.1549                 1.8610
 IR Inten    --      5.1906               461.8196               349.3450

                     25                     26                     27
                      A                      A                      A
 Frequencies --   1443.1359              1454.6284              1456.4467
 Red. masses --      1.3569                 1.1140                 1.2654
 Frc consts  --      1.6650                 1.3888                 1.5814
 IR Inten    --     57.0914                65.6653                10.1378

                     28                     29                     30
                      A                      A                      A
 Frequencies --   1528.1625              1536.0366              1544.9336
 Red. masses --      1.0422                 1.0758                 1.0680
 Frc consts  --      1.4339                 1.4955                 1.5019
 IR Inten    --     14.8633                 7.3912                22.9336

                     31                     32                     33
                      A                      A                      A
 Frequencies --   1907.9687              2309.1286              3108.2509
 Red. masses --     12.4157                11.2210                 1.0351
 Frc consts  --     26.6295                35.2517                 5.8920
 IR Inten    --    308.3456               217.5351                14.2833

                     34                     35                     36
                      A                      A                      A
 Frequencies --   3138.2187              3154.8738              3188.3854
 Red. masses --      1.0602                 1.0704                 1.1008
 Frc consts  --      6.1520                 6.2771                 6.5930
 IR Inten    --     22.5859               607.8267                11.5525

                     37                     38                     39
                      A                      A                      A
 Frequencies --   3191.3355              3212.2851              3900.2196
 Red. masses --      1.1022                 1.1053                 1.0671
 Frc consts  --      6.6136                 6.7196                 9.5642
 IR Inten    --      7.3070                17.0066               106.8534

 - Thermochemistry -
 -------------------
 Temperature   298.150 Kelvin.  Pressure   1.00000 Atm.
 Atom     1 has atomic number  8 and mass  15.99491

 Molecular mass:   115.03952 amu.
 Principal axes and moments of inertia in atomic units:
                           1         2         3
     Eigenvalues --   287.677452625.231862737.93467
           X            0.99993   0.00776  -0.00902
           Y           -0.00783   0.99994  -0.00777
           Z            0.00896   0.00784   0.99993
 This molecule is an asymmetric top.
 Rotational symmetry number  1.
 Rotational temperatures (Kelvin)      0.30108     0.03299     0.03163
 Rotational constants (GHZ):           6.27349     0.68746     0.65916
    5 imaginary frequencies ignored.
 Zero-point vibrational energy     290839.5 (Joules/Mol)
                                   69.51230 (Kcal/Mol)
 Warning -- explicit consideration of  10 degrees of freedom as
           vibrations may cause significant error
 Vibrational temperatures:     51.31    90.75   248.37   261.65   301.39
          (Kelvin)            429.47   463.25   606.76   832.50   886.23
                             1138.79  1173.09  1294.02  1364.42  1600.87
                             1665.42  1766.13  1909.33  1973.68  2076.35
                             2092.89  2095.50  2198.69  2210.01  2222.81
                             2745.14  3322.32  4472.08  4515.20  4539.16
                             4587.38  4591.62  4621.76  5611.55

 Zero-point correction=                           0.110775 (Hartree/Particle)
 Thermal correction to Energy=                    0.118812
 Thermal correction to Enthalpy=                  0.119756
 Thermal correction to Gibbs Free Energy=         0.075715
 Sum of electronic and zero-point Energies=           -419.805734
 Sum of electronic and thermal Energies=              -419.797698
 Sum of electronic and thermal Enthalpies=            -419.796753
 Sum of electronic and thermal Free Energies=         -419.840794

                     E (Thermal)             CV                S
                      KCal/Mol        Cal/Mol-Kelvin    Cal/Mol-Kelvin
 Total                   74.555             25.946             92.691
 Electronic               0.000              0.000              1.377
 Translational            0.889              2.981             40.136
 Rotational               0.889              2.981             29.115
 Vibrational             72.778             19.985             22.062
 Vibration     1          0.594              1.982              5.486
 Vibration     2          0.597              1.972              4.359
 Vibration     3          0.626              1.876              2.407
 Vibration     4          0.630              1.864              2.309
 Vibration     5          0.642              1.826              2.048
 Vibration     6          0.692              1.677              1.425
 Vibration     7          0.707              1.631              1.300
 Vibration     8          0.784              1.423              0.886
 Vibration     9          0.935              1.078              0.488
 Vibration    10          0.976              0.998              0.423

 Normal termination of Gaussian 16 at Fri Jun 20 12:21:12 2025.
