 Gaussian 16, Revision A.03,
 Gaussian 16:  ES64L-G16RevA.03 25-Dec-2016

 --------------------------
 # ccsd(t)/6-311++g(d,p) sp
 --------------------------

 -------------------
 Title Card Required
 -------------------
 Symbolic Z-matrix:
 Charge =  0 Multiplicity = 2

                         Standard orientation:
 ---------------------------------------------------------------------
 Center     Atomic      Atomic             Coordinates (Angstroms)
 Number     Number       Type             X           Y           Z
 ---------------------------------------------------------------------
      1          8           0        4.557898   -0.255753    0.320440
      2          1           0        4.603325    0.645509   -0.033106
      3          6           0        2.262141   -0.311588   -0.076837
      4          1           0        3.601413   -0.630590   -0.049849
      5          6           0        1.103483    0.025854   -0.105961
      6          6           0       -0.304121    0.403098   -0.189206
      7          8           0       -0.690261    1.531757   -0.062338
      8          8           0       -1.073336   -0.656846   -0.424582
      9          6           0       -2.492220   -0.405964   -0.509687
     10          6           0       -3.106796   -0.283838    0.870632
     11          1           0       -2.879286   -1.268460   -1.048992
     12          1           0       -2.652093    0.496269   -1.101065
     13          1           0       -4.188669   -0.169924    0.779337
     14          1           0       -2.901762   -1.179341    1.458978
     15          1           0       -2.712257    0.587901    1.392892
 ---------------------------------------------------------------------

 SCF Done:  E(UHF) =  -417.934403707     A.U. after   36 cycles
 E2 =    -0.1270721000D+01 EUMP2 =    -0.41920512470731D+03
 CCSD(T)= -0.41932336632D+03

 The electronic state is 2-A.
 Alpha  occ. eigenvalues --  -20.65040 -20.61674 -20.56250 -11.42045 -11.30029
 Alpha  occ. eigenvalues --  -11.30016 -11.25359 -11.22834  -1.48506  -1.43069
 Alpha  occ. eigenvalues --   -1.38096  -1.08247  -1.04778  -0.93084  -0.84494
 Alpha  occ. eigenvalues --   -0.80987  -0.76244  -0.69776  -0.69502  -0.66635
 Alpha  occ. eigenvalues --   -0.63713  -0.58754  -0.58529  -0.56869  -0.54821
 Alpha  occ. eigenvalues --   -0.54308  -0.50841  -0.48229  -0.46498  -0.44739
 Alpha  occ. eigenvalues --   -0.44472
 Alpha virt. eigenvalues --    0.04025   0.04500   0.05825   0.06485   0.07243
 Alpha virt. eigenvalues --    0.08168   0.08919   0.09255   0.11380   0.12424
 Alpha virt. eigenvalues --    0.13327   0.13555   0.14575   0.15818   0.16140

  Beta  occ. eigenvalues --  -20.62322 -20.61693 -20.56797 -11.41629 -11.30036
  Beta  occ. eigenvalues --  -11.26998 -11.25587 -11.22836  -1.48780  -1.38979
  Beta  occ. eigenvalues --   -1.33637  -1.08071  -1.03524  -0.91642  -0.83024
  Beta  occ. eigenvalues --   -0.76396  -0.73109  -0.70263  -0.67106  -0.63942
  Beta  occ. eigenvalues --   -0.59382  -0.58963  -0.55910  -0.54504  -0.53638
  Beta  occ. eigenvalues --   -0.50990  -0.49087  -0.47698  -0.43178  -0.42757
  Beta virt. eigenvalues --   -0.00634   0.04162   0.05525   0.05825   0.06499
  Beta virt. eigenvalues --    0.07317   0.08232   0.09226   0.10006   0.11800
  Beta virt. eigenvalues --    0.12700   0.13472   0.13877   0.14929   0.15587

 Mulliken charges and spin densities:
               1          2
     1  O   -0.281466   0.558273
     2  H    0.274097  -0.025045
     3  C   -0.633729   1.578506
     4  H    0.403616  -0.161718
     5  C    1.305482  -0.977237
     6  C   -0.975894   0.136349
     7  O   -0.278666  -0.112455
     8  O   -0.086086   0.002974
     9  C   -0.165148   0.002008
    10  C   -0.359717  -0.001000
    11  H    0.167916  -0.000227
    12  H    0.175638  -0.000062
    13  H    0.135598  -0.000117
    14  H    0.145123  -0.000117
    15  H    0.173234  -0.000134
 Sum of Mulliken charges =  -0.00000   1.00000

 Dipole moment (field-independent basis, Debye):
    X=             -0.6653    Y=             -0.5003    Z=             -0.9890  Tot=              1.2927
 Quadrupole moment (field-independent basis, Debye-Ang):
   XX=            -36.1726   YY=            -52.5731   ZZ=            -47.9566
   XY=              8.0866   XZ=             -3.0016   YZ=             -0.3867

 Normal termination of Gaussian 16 at Sat Jun 28 15:45:46 2025.
