 Gaussian 16, Revision A.03,
 Gaussian 16:  ES64L-G16RevA.03 25-Dec-2016

 --------------------------
 # freq 6-311++g(d,p) m062x
 --------------------------

 -------------------
 Title Card Required
 -------------------
 Symbolic Z-matrix:
 Charge =  0 Multiplicity = 2

                         Standard orientation:
 ---------------------------------------------------------------------
 Center     Atomic      Atomic             Coordinates (Angstroms)
 Number     Number       Type             X           Y           Z
 ---------------------------------------------------------------------
      1          8           0        4.560561   -0.256769    0.320732
      2          1           0        4.608118    0.648330   -0.029009
      3          6           0        2.265527   -0.313129   -0.077114
      4          1           0        3.496192   -0.621679   -0.047643
      5          6           0        1.106358    0.024073   -0.106299
      6          6           0       -0.302148    0.403126   -0.189045
      7          8           0       -0.688972    1.531820   -0.062856
      8          8           0       -1.072582   -0.656727   -0.424507
      9          6           0       -2.491314   -0.405390   -0.509775
     10          6           0       -3.106102   -0.282747    0.870451
     11          1           0       -2.878722   -1.267900   -1.048884
     12          1           0       -2.651003    0.496764   -1.101337
     13          1           0       -4.187956   -0.168526    0.779074
     14          1           0       -2.901359   -1.178167    1.459044
     15          1           0       -2.711264    0.588985    1.392487
 ---------------------------------------------------------------------

 SCF Done:  E(UM062X) =  -420.177120622     A.U. after   22 cycles

 The electronic state is 2-A.
 Alpha  occ. eigenvalues --  -19.70900 -19.68584 -19.63476 -10.70967 -10.60837
 Alpha  occ. eigenvalues --  -10.58656 -10.57230 -10.53991  -1.25952  -1.18932
 Alpha  occ. eigenvalues --   -1.16669  -0.90598  -0.87144  -0.78210  -0.71050
 Alpha  occ. eigenvalues --   -0.67327  -0.64282  -0.58716  -0.57991  -0.56660
 Alpha  occ. eigenvalues --   -0.53966  -0.49607  -0.47183  -0.46897  -0.45656
 Alpha  occ. eigenvalues --   -0.43688  -0.42237  -0.39664  -0.38800  -0.37456
 Alpha  occ. eigenvalues --   -0.36439
 Alpha virt. eigenvalues --   -0.01783  -0.00614   0.00077   0.01765   0.02335
 Alpha virt. eigenvalues --    0.02719   0.03797   0.05175   0.05416   0.06387
 Alpha virt. eigenvalues --    0.06999   0.07884   0.08262   0.08804   0.10221

  Beta  occ. eigenvalues --  -19.69661 -19.68590 -19.63471 -10.70956 -10.60837
  Beta  occ. eigenvalues --  -10.57965 -10.57144 -10.53991  -1.25953  -1.16663
  Beta  occ. eigenvalues --   -1.13986  -0.90267  -0.86432  -0.77826  -0.70169
  Beta  occ. eigenvalues --   -0.64581  -0.62654  -0.58712  -0.56702  -0.54191
  Beta  occ. eigenvalues --   -0.52436  -0.49584  -0.46946  -0.45592  -0.43663
  Beta  occ. eigenvalues --   -0.42266  -0.39377  -0.38794  -0.36591  -0.35974
  Beta virt. eigenvalues --   -0.16130  -0.01270  -0.00259   0.00223   0.01776
  Beta virt. eigenvalues --    0.02370   0.02857   0.03936   0.05416   0.05667
  Beta virt. eigenvalues --    0.06612   0.07089   0.07902   0.08374   0.08863

 Mulliken charges and spin densities:
               1          2
     1  O   -0.256083   0.647421
     2  H    0.268735  -0.015901
     3  C   -0.661144   0.409215
     4  H    0.424145  -0.033374
     5  C    1.124832   0.041347
     6  C   -0.922648  -0.048782
     7  O   -0.211151   0.001034
     8  O    0.009982   0.000140
     9  C   -0.281182  -0.001188
    10  C   -0.403034   0.000257
    11  H    0.197086  -0.000106
    12  H    0.193485   0.000100
    13  H    0.165344  -0.000011
    14  H    0.167205  -0.000007
    15  H    0.184429  -0.000146
 Sum of Mulliken charges =  -0.00000   1.00000

 Dipole moment (field-independent basis, Debye):
    X=             -0.6784    Y=             -0.2944    Z=             -0.8321  Tot=              1.1132
 Quadrupole moment (field-independent basis, Debye-Ang):
   XX=            -34.4519   YY=            -52.2042   ZZ=            -48.0987
   XY=              8.0502   XZ=             -2.6494   YZ=             -0.4019

  Exact polarizability: 135.133  -6.493  60.660   2.841   0.484  50.420
 Approx polarizability: 120.637 -12.281  79.267   3.782   1.396  57.557

 ******    3 imaginary frequencies (negative Signs) ******

                      1                      2                      3
                      A                      A                      A
 Frequencies --  -1604.5767              -105.1521               -31.2024
 Red. masses --      1.0457                 2.6836                 6.7752
 Frc consts  --      1.5863                 0.0175                 0.0039
 IR Inten    --    636.7167                18.3370                 2.5019

                      4                      5                      6
                      A                      A                      A
 Frequencies --     77.7245               115.5222               155.7505
 Red. masses --      3.4867                 3.4392                 3.2210
 Frc consts  --      0.0124                 0.0270                 0.0460
 IR Inten    --      1.8338                 0.9698                18.8169

                      7                      8                      9
                      A                      A                      A
 Frequencies --    182.3587               225.7492               278.6142
 Red. masses --      1.6265                 1.2787                 4.0630
 Frc consts  --      0.0319                 0.0384                 0.1858
 IR Inten    --     78.8471                 2.2936                15.6427

                     10                     11                     12
                      A                      A                      A
 Frequencies --    336.9404               392.9472               430.1039
 Red. masses --      2.9328                 7.7994                 3.6808
 Frc consts  --      0.1962                 0.7095                 0.4012
 IR Inten    --      8.9442                 3.2001                 1.4294

                     13                     14                     15
                      A                      A                      A
 Frequencies --    569.7378               623.1088               686.2415
 Red. masses --      5.3381                 4.9981                 1.2151
 Frc consts  --      1.0209                 1.1434                 0.3372
 IR Inten    --     11.6419                 7.3595               170.1899

                     16                     17                     18
                      A                      A                      A
 Frequencies --    780.3851               797.9386               892.2694
 Red. masses --      8.7140                 1.2403                 3.0974
 Frc consts  --      3.1267                 0.4653                 1.4529
 IR Inten    --     23.2636                 2.8424                14.7632

                     19                     20                     21
                      A                      A                      A
 Frequencies --    915.6944              1005.0163              1079.7491
 Red. masses --      2.1337                 1.4978                 3.9305
 Frc consts  --      1.0541                 0.8914                 2.6999
 IR Inten    --     15.4789                63.9054                32.5661

                     22                     23                     24
                      A                      A                      A
 Frequencies --   1127.5792              1202.5348              1285.2274
 Red. masses --      2.0894                 1.7756                 4.0687
 Frc consts  --      1.5652                 1.5128                 3.9597
 IR Inten    --     30.2994                 4.3122               716.2750

                     25                     26                     27
                      A                      A                      A
 Frequencies --   1346.7065              1400.4561              1418.4499
 Red. masses --      1.2086                 1.2600                 1.1161
 Frc consts  --      1.2914                 1.4559                 1.3231
 IR Inten    --     98.0402                14.8441               198.8301

                     28                     29                     30
                      A                      A                      A
 Frequencies --   1431.7303              1492.5850              1501.4963
 Red. masses --      1.3674                 1.0413                 1.0683
 Frc consts  --      1.6515                 1.3668                 1.4190
 IR Inten    --     37.3153                10.8586                 5.3210

                     31                     32                     33
                      A                      A                      A
 Frequencies --   1513.9104              1837.4506              2299.7568
 Red. masses --      1.0777                12.0934                10.7169
 Frc consts  --      1.4553                24.0563                33.3951
 IR Inten    --     20.9695               359.6029                48.7152

                     34                     35                     36
                      A                      A                      A
 Frequencies --   3075.8631              3108.1786              3151.2543
 Red. masses --      1.0354                 1.0607                 1.1014
 Frc consts  --      5.7713                 6.0376                 6.4443
 IR Inten    --     10.5686                18.7478                15.5270

                     37                     38                     39
                      A                      A                      A
 Frequencies --   3155.1641              3175.8351              3802.8005
 Red. masses --      1.1049                 1.1074                 1.0667
 Frc consts  --      6.4804                 6.5805                 9.0886
 IR Inten    --      2.1136                14.9813               120.0851

 - Thermochemistry -
 -------------------
 Temperature   298.150 Kelvin.  Pressure   1.00000 Atm.
 Atom     1 has atomic number  8 and mass  15.99491

 Molecular mass:   115.03952 amu.
 Principal axes and moments of inertia in atomic units:
                           1         2         3
     Eigenvalues --   286.962132617.905152730.49203
           X            0.99993   0.00867  -0.00849
           Y           -0.00875   0.99992  -0.00953
           Z            0.00841   0.00961   0.99992
 This molecule is an asymmetric top.
 Rotational symmetry number  1.
 Rotational temperatures (Kelvin)      0.30183     0.03309     0.03172
 Rotational constants (GHZ):           6.28913     0.68938     0.66096
    3 imaginary frequencies ignored.
 Zero-point vibrational energy     280361.8 (Joules/Mol)
                                   67.00808 (Kcal/Mol)
 Warning -- explicit consideration of  10 degrees of freedom as
           vibrations may cause significant error
 Vibrational temperatures:    111.83   166.21   224.09   262.37   324.80
          (Kelvin)            400.86   484.78   565.36   618.82   819.73
                              896.51   987.35  1122.80  1148.06  1283.78
                             1317.48  1445.99  1553.52  1622.33  1730.18
                             1849.16  1937.61  2014.94  2040.83  2059.94
                             2147.50  2160.32  2178.18  2643.68  3308.84
                             4425.48  4471.98  4533.95  4539.58  4569.32
                             5471.38

 Zero-point correction=                           0.106784 (Hartree/Particle)
 Thermal correction to Energy=                    0.115138
 Thermal correction to Enthalpy=                  0.116082
 Thermal correction to Gibbs Free Energy=         0.072599
 Sum of electronic and zero-point Energies=           -420.070336
 Sum of electronic and thermal Energies=              -420.061982
 Sum of electronic and thermal Enthalpies=            -420.061038
 Sum of electronic and thermal Free Energies=         -420.104522

                     E (Thermal)             CV                S
                      KCal/Mol        Cal/Mol-Kelvin    Cal/Mol-Kelvin
 Total                   72.250             28.853             91.518
 Electronic               0.000              0.000              1.377
 Translational            0.889              2.981             40.136
 Rotational               0.889              2.981             29.107
 Vibrational             70.473             22.891             20.898
 Vibration     1          0.599              1.964              3.948
 Vibration     2          0.608              1.937              3.174
 Vibration     3          0.620              1.896              2.601
 Vibration     4          0.630              1.864              2.304
 Vibration     5          0.650              1.802              1.912
 Vibration     6          0.679              1.713              1.542
 Vibration     7          0.718              1.602              1.227
 Vibration     8          0.760              1.485              0.989
 Vibration     9          0.791              1.405              0.858
 Vibration    10          0.926              1.097              0.505

 1\1\GINC-AJ\Freq\UM062X\6-311++G(d,p)\C5H7O3(2)\AAYUSH\23-Jun-2025\0\\
 # freq 6-311++g(d,p) m062x\\Title Card Required\\0,2\O,4.560561,-0.256
 769,0.320732\H,4.608118,0.64833,-0.029009\C,2.265527,-0.313129,-0.0771
 14\H,3.496192,-0.621679,-0.047643\C,1.106358,0.024073,-0.106299\C,-0.3
 02148,0.403126,-0.189045\O,-0.688972,1.53182,-0.062856\O,-1.072582,-0.
 656727,-0.424507\C,-2.491314,-0.40539,-0.509775\C,-3.106102,-0.282747,
 0.870451\H,-2.878722,-1.2679,-1.048884\H,-2.651003,0.496764,-1.101337\
 H,-4.187956,-0.168526,0.779074\H,-2.901359,-1.178167,1.459044\H,-2.711

 Normal termination of Gaussian 16 at Mon Jun 23 00:38:07 2025.
