 Gaussian 16, Revision A.03,
 Gaussian 16:  ES64L-G16RevA.03 25-Dec-2016

 -------------------
 # freq 6-31+g m062x
 -------------------

 -------------------
 Title Card Required
 -------------------
 Symbolic Z-matrix:
 Charge =  0 Multiplicity = 2

                         Standard orientation:
 ---------------------------------------------------------------------
 Center     Atomic      Atomic             Coordinates (Angstroms)
 Number     Number       Type             X           Y           Z
 ---------------------------------------------------------------------
      1          8           0        4.561890   -0.244269    0.332596
      2          1           0        4.585262    0.634240   -0.064305
      3          6           0        2.249241   -0.304959   -0.069928
      4          1           0        3.867618   -0.735534   -0.157580
      5          6           0        1.092748    0.032596   -0.102599
      6          6           0       -0.310531    0.403457   -0.191025
      7          8           0       -0.695870    1.532349   -0.067081
      8          8           0       -1.075530   -0.659159   -0.422070
      9          6           0       -2.494245   -0.410796   -0.508777
     10          6           0       -3.109137   -0.284276    0.870898
     11          1           0       -2.880040   -1.275721   -1.045039
     12          1           0       -2.654997    0.489074   -1.103548
     13          1           0       -4.191124   -0.172259    0.778829
     14          1           0       -2.903032   -1.177286    1.462643
     15          1           0       -2.716051    0.589975    1.390034
 ---------------------------------------------------------------------

 SCF Done:  E(UM062X) =  -419.916651029     A.U. after   25 cycles

 The electronic state is 2-A.
 Alpha  occ. eigenvalues --  -19.71252 -19.70339 -19.66911 -10.73585 -10.62695
 Alpha  occ. eigenvalues --  -10.62041 -10.59453 -10.54982  -1.28673  -1.20658
 Alpha  occ. eigenvalues --   -1.19304  -0.92078  -0.88548  -0.79094  -0.71492
 Alpha  occ. eigenvalues --   -0.67765  -0.64974  -0.59028  -0.57363  -0.54984
 Alpha  occ. eigenvalues --   -0.53880  -0.50067  -0.47429  -0.46836  -0.45873
 Alpha  occ. eigenvalues --   -0.42745  -0.42032  -0.40217  -0.38951  -0.38626
 Alpha  occ. eigenvalues --   -0.37365
 Alpha virt. eigenvalues --   -0.02451   0.01339   0.02092   0.03303   0.03724
 Alpha virt. eigenvalues --    0.04561   0.04814   0.06402   0.07272   0.08287
 Alpha virt. eigenvalues --    0.08775   0.09025   0.09158   0.10535   0.12352

  Beta  occ. eigenvalues --  -19.71264 -19.69630 -19.66920 -10.73558 -10.62042
  Beta  occ. eigenvalues --  -10.61491 -10.59363 -10.54982  -1.28684  -1.19326
  Beta  occ. eigenvalues --   -1.18403  -0.91363  -0.87469  -0.78595  -0.70926
  Beta  occ. eigenvalues --   -0.65806  -0.64906  -0.59055  -0.57420  -0.54655
  Beta  occ. eigenvalues --   -0.50058  -0.49693  -0.47437  -0.45852  -0.43090
  Beta  occ. eigenvalues --   -0.42442  -0.39604  -0.38916  -0.37070  -0.36512
  Beta virt. eigenvalues --   -0.15605  -0.01235   0.01729   0.02193   0.03353
  Beta virt. eigenvalues --    0.04322   0.04690   0.04933   0.06536   0.07599
  Beta virt. eigenvalues --    0.08315   0.08766   0.09069   0.09450   0.10806

 Mulliken charges and spin densities:
               1          2
     1  O   -0.599338   0.265723
     2  H    0.437241  -0.010263
     3  C    1.569982   0.656468
     4  H    0.472802  -0.018342
     5  C   -0.481162   0.085883
     6  C   -1.150354   0.026967
     7  O   -0.350769  -0.004634
     8  O   -0.207351  -0.001542
     9  C   -0.255632   0.000688
    10  C   -0.559181  -0.000715
    11  H    0.222189  -0.000059
    12  H    0.233430  -0.000075
    13  H    0.209692  -0.000118
    14  H    0.221772  -0.000005
    15  H    0.236677   0.000026
 Sum of Mulliken charges =  -0.00000   1.00000

 Dipole moment (field-independent basis, Debye):
    X=             -1.3911    Y=             -0.3766    Z=             -1.5599  Tot=              2.1237
 Quadrupole moment (field-independent basis, Debye-Ang):
   XX=            -39.9538   YY=            -52.9179   ZZ=            -48.4312
   XY=              7.7181   XZ=             -6.0996   YZ=             -0.1190

  Exact polarizability: 138.513  -7.150  60.403   2.148   0.779  47.075
 Approx polarizability: 112.985 -13.156  75.464   3.375   2.465  48.363

 ******    5 imaginary frequencies (negative Signs) ******

                      1                      2                      3
                      A                      A                      A
 Frequencies --   -757.7364              -526.2714              -205.5995
 Red. masses --      1.0221                 1.0521                 1.4285
 Frc consts  --      0.3458                 0.1717                 0.0356
 IR Inten    --     81.2852               156.3923               156.0189

                      4                      5                      6
                      A                      A                      A
 Frequencies --    -80.7862               -25.9690                20.6490
 Red. masses --      7.3937                 2.9623                 5.1703
 Frc consts  --      0.0284                 0.0012                 0.0013
 IR Inten    --      7.3606                 1.1434                17.3320

                      7                      8                      9
                      A                      A                      A
 Frequencies --     50.0634               154.4456               162.8018
 Red. masses --      4.1380                 3.7086                 2.5763
 Frc consts  --      0.0061                 0.0521                 0.0402
 IR Inten    --      6.2697                77.8039                30.9670

                     10                     11                     12
                      A                      A                      A
 Frequencies --    192.9369               286.6209               316.8171
 Red. masses --      1.6284                 5.1571                 3.4188
 Frc consts  --      0.0357                 0.2496                 0.2022
 IR Inten    --      9.1939                25.1529                36.4484

                     13                     14                     15
                      A                      A                      A
 Frequencies --    420.6001               577.0994               615.0704
 Red. masses --      4.0851                 5.1198                 9.2113
 Frc consts  --      0.4258                 1.0046                 2.0532
 IR Inten    --     10.7278                 2.4555                62.8023

                     16                     17                     18
                      A                      A                      A
 Frequencies --    789.6396               815.3825               899.5324
 Red. masses --      9.9271                 1.2833                 3.3488
 Frc consts  --      3.6469                 0.5027                 1.5965
 IR Inten    --     16.0304                 6.6672                10.0521

                     19                     20                     21
                      A                      A                      A
 Frequencies --    948.4666              1112.8742              1157.6560
 Red. masses --      2.6665                 4.2138                 2.0892
 Frc consts  --      1.4133                 3.0748                 1.6497
 IR Inten    --      2.0340                 7.4282                23.9086

                     22                     23                     24
                      A                      A                      A
 Frequencies --   1227.6222              1327.4447              1372.0684
 Red. masses --      1.7621                 2.0609                 1.6903
 Frc consts  --      1.5646                 2.1397                 1.8748
 IR Inten    --      4.9723               445.1820               345.6528

                     25                     26                     27
                      A                      A                      A
 Frequencies --   1443.3759              1456.4068              1476.4772
 Red. masses --      1.3674                 1.2658                 1.1015
 Frc consts  --      1.6784                 1.5819                 1.4148
 IR Inten    --     50.8522                16.4003                75.0677

                     28                     29                     30
                      A                      A                      A
 Frequencies --   1528.1666              1536.0644              1544.9650
 Red. masses --      1.0422                 1.0757                 1.0681
 Frc consts  --      1.4339                 1.4955                 1.5021
 IR Inten    --     14.8117                 7.1584                22.7158

                     31                     32                     33
                      A                      A                      A
 Frequencies --   1908.2694              2307.5348              3108.2332
 Red. masses --     12.4164                11.5393                 1.0351
 Frc consts  --     26.6395                36.2016                 5.8919
 IR Inten    --    307.4654               229.5878                13.5184

                     34                     35                     36
                      A                      A                      A
 Frequencies --   3138.1209              3188.3137              3191.2906
 Red. masses --      1.0602                 1.1008                 1.1021
 Frc consts  --      6.1516                 6.5929                 6.6133
 IR Inten    --     20.2921                12.9116                 7.8530

                     37                     38                     39
                      A                      A                      A
 Frequencies --   3212.2124              3356.5864              3908.2890
 Red. masses --      1.1053                 1.0646                 1.0684
 Frc consts  --      6.7192                 7.0669                 9.6156
 IR Inten    --     17.4828               509.9934                96.3754

 - Thermochemistry -
 -------------------
 Temperature   298.150 Kelvin.  Pressure   1.00000 Atm.
 Atom     1 has atomic number  8 and mass  15.99491

 Molecular mass:   115.03952 amu.
 Principal axes and moments of inertia in atomic units:
                           1         2         3
     Eigenvalues --   287.859052626.653272739.38109
           X            0.99993   0.00761  -0.00918
           Y           -0.00767   0.99994  -0.00726
           Z            0.00912   0.00733   0.99993
 This molecule is an asymmetric top.
 Rotational symmetry number  1.
 Rotational temperatures (Kelvin)      0.30089     0.03298     0.03162
 Rotational constants (GHZ):           6.26953     0.68709     0.65881
    5 imaginary frequencies ignored.
 Zero-point vibrational energy     291602.3 (Joules/Mol)
                                   69.69462 (Kcal/Mol)
 Warning -- explicit consideration of  10 degrees of freedom as
           vibrations may cause significant error
 Vibrational temperatures:     29.71    72.03   222.21   234.24   277.59
          (Kelvin)            412.38   455.83   605.15   830.32   884.95
                             1136.12  1173.15  1294.23  1364.63  1601.18
                             1665.61  1766.27  1909.90  1974.10  2076.70
                             2095.44  2124.32  2198.69  2210.05  2222.86
                             2745.57  3320.03  4472.05  4515.06  4587.27
                             4591.56  4621.66  4829.38  5623.16

 Zero-point correction=                           0.111065 (Hartree/Particle)
 Thermal correction to Energy=                    0.119274
 Thermal correction to Enthalpy=                  0.120218
 Thermal correction to Gibbs Free Energy=         0.075125
 Sum of electronic and zero-point Energies=           -419.805586
 Sum of electronic and thermal Energies=              -419.797377
 Sum of electronic and thermal Enthalpies=            -419.796433
 Sum of electronic and thermal Free Energies=         -419.841526

                     E (Thermal)             CV                S
                      KCal/Mol        Cal/Mol-Kelvin    Cal/Mol-Kelvin
 Total                   74.845             26.059             94.905
 Electronic               0.000              0.000              1.377
 Translational            0.889              2.981             40.136
 Rotational               0.889              2.981             29.117
 Vibrational             73.068             20.097             24.275
 Vibration     1          0.593              1.986              6.571
 Vibration     2          0.595              1.978              4.815
 Vibration     3          0.620              1.898              2.617
 Vibration     4          0.623              1.888              2.517
 Vibration     5          0.635              1.850              2.199
 Vibration     6          0.684              1.699              1.494
 Vibration     7          0.704              1.641              1.326
 Vibration     8          0.783              1.425              0.890
 Vibration     9          0.934              1.081              0.491
 Vibration    10          0.975              1.000              0.424

 Normal termination of Gaussian 16 at Fri Jun 20 12:24:54 2025.
