 Gaussian 16, Revision A.03,
 Gaussian 16:  ES64L-G16RevA.03 25-Dec-2016

 --------------------------
 # freq 6-311++g(d,p) m062x
 --------------------------

 -------------------
 Title Card Required
 -------------------
 Symbolic Z-matrix:
 Charge =  0 Multiplicity = 2

                         Standard orientation:
 ---------------------------------------------------------------------
 Center     Atomic      Atomic             Coordinates (Angstroms)
 Number     Number       Type             X           Y           Z
 ---------------------------------------------------------------------
      1          8           0        4.560373   -0.248570    0.327721
      2          1           0        4.590474    0.638413   -0.051910
      3          6           0        2.253053   -0.307384   -0.072940
      4          1           0        3.782961   -0.698302   -0.115114
      5          6           0        1.096047    0.030711   -0.103770
      6          6           0       -0.308543    0.403212   -0.190396
      7          8           0       -0.693661    1.532062   -0.064891
      8          8           0       -1.074705   -0.658192   -0.423128
      9          6           0       -2.493606   -0.408893   -0.509156
     10          6           0       -3.108311   -0.284377    0.870804
     11          1           0       -2.879740   -1.272806   -1.046780
     12          1           0       -2.653953    0.491989   -1.102476
     13          1           0       -4.190245   -0.171664    0.779005
     14          1           0       -2.902616   -1.178469    1.461048
     15          1           0       -2.714772    0.588827    1.391360
 ---------------------------------------------------------------------

 SCF Done:  E(UM062X) =  -420.175500797     A.U. after   24 cycles

 The electronic state is 2-A.
 Alpha  occ. eigenvalues --  -19.68940 -19.67875 -19.63892 -10.71344 -10.61082
 Alpha  occ. eigenvalues --  -10.60786 -10.57898 -10.54190  -1.26379  -1.18539
 Alpha  occ. eigenvalues --   -1.17100  -0.91291  -0.87765  -0.78570  -0.70930
 Alpha  occ. eigenvalues --   -0.66993  -0.64709  -0.59089  -0.57064  -0.55418
 Alpha  occ. eigenvalues --   -0.54090  -0.49910  -0.47247  -0.46290  -0.45886
 Alpha  occ. eigenvalues --   -0.42747  -0.42187  -0.40210  -0.39140  -0.38404
 Alpha  occ. eigenvalues --   -0.37159
 Alpha virt. eigenvalues --   -0.02296  -0.00388   0.00134   0.01631   0.02275
 Alpha virt. eigenvalues --    0.02684   0.03483   0.04882   0.05317   0.06136
 Alpha virt. eigenvalues --    0.06913   0.07742   0.08064   0.08648   0.10267

  Beta  occ. eigenvalues --  -19.68952 -19.67178 -19.63888 -10.71323 -10.61083
  Beta  occ. eigenvalues --  -10.59596 -10.57781 -10.54190  -1.26385  -1.17101
  Beta  occ. eigenvalues --   -1.16007  -0.90645  -0.86627  -0.77983  -0.70230
  Beta  occ. eigenvalues --   -0.64875  -0.64100  -0.59093  -0.57110  -0.54288
  Beta  occ. eigenvalues --   -0.50731  -0.49889  -0.47257  -0.45861  -0.42996
  Beta  occ. eigenvalues --   -0.42472  -0.39698  -0.39152  -0.36857  -0.36243
  Beta virt. eigenvalues --   -0.15740  -0.01178  -0.00191   0.00388   0.01654
  Beta virt. eigenvalues --    0.02282   0.02960   0.03648   0.05308   0.05801
  Beta virt. eigenvalues --    0.06712   0.06966   0.07760   0.08136   0.08665

 Mulliken charges and spin densities:
               1          2
     1  O   -0.327805   0.287882
     2  H    0.274463  -0.007632
     3  C   -0.601042   0.782181
     4  H    0.392122  -0.035711
     5  C    1.095748   0.070110
     6  C   -0.864042  -0.094839
     7  O   -0.207388   0.000012
     8  O    0.011918  -0.000300
     9  C   -0.281954  -0.001547
    10  C   -0.403143   0.000193
    11  H    0.198201  -0.000177
    12  H    0.193886   0.000076
    13  H    0.166609  -0.000034
    14  H    0.167752  -0.000016
    15  H    0.184675  -0.000199
 Sum of Mulliken charges =  -0.00000   1.00000

 Dipole moment (field-independent basis, Debye):
    X=             -1.4244    Y=             -0.4571    Z=             -1.1416  Tot=              1.8818
 Quadrupole moment (field-independent basis, Debye-Ang):
   XX=            -39.3588   YY=            -51.8107   ZZ=            -48.0317
   XY=              7.3682   XZ=             -4.1026   YZ=             -0.2032

  Exact polarizability: 141.336  -8.603  62.373   1.555   0.589  51.103
 Approx polarizability: 120.793 -13.197  80.435   3.012   1.872  57.991

 ******    4 imaginary frequencies (negative Signs) ******

                      1                      2                      3
                      A                      A                      A
 Frequencies --   -538.9092              -131.6000               -45.7392
 Red. masses --      1.0403                 1.1016                 8.2864
 Frc consts  --      0.1780                 0.0112                 0.0102
 IR Inten    --     95.9086                66.8166                 0.4311

                      4                      5                      6
                      A                      A                      A
 Frequencies --    -31.6833                74.0881               110.2998
 Red. masses --      5.5020                 4.1800                 4.8466
 Frc consts  --      0.0033                 0.0135                 0.0347
 IR Inten    --      7.3121                 2.6894                 1.6531

                      7                      8                      9
                      A                      A                      A
 Frequencies --    127.1048               195.2131               230.4329
 Red. masses --      3.5064                 3.9090                 1.3789
 Frc consts  --      0.0334                 0.0878                 0.0431
 IR Inten    --      6.0554                75.5731                 7.2223

                     10                     11                     12
                      A                      A                      A
 Frequencies --    246.3208               333.2663               419.7675
 Red. masses --      8.6641                 2.8406                 3.8305
 Frc consts  --      0.3097                 0.1859                 0.3977
 IR Inten    --     15.5020                10.4853                 8.6326

                     13                     14                     15
                      A                      A                      A
 Frequencies --    452.2232               551.6482               597.4915
 Red. masses --      1.0764                 6.0987                 6.9127
 Frc consts  --      0.1297                 1.0935                 1.4540
 IR Inten    --    152.8073                13.9319                50.4939

                     16                     17                     18
                      A                      A                      A
 Frequencies --    771.3214               798.7964               894.4554
 Red. masses --     10.2522                 1.2094                 3.0652
 Frc consts  --      3.5937                 0.4547                 1.4449
 IR Inten    --     16.8729                 4.9235                 7.5083

                     19                     20                     21
                      A                      A                      A
 Frequencies --    932.1813              1076.7108              1127.6883
 Red. masses --      2.9447                 4.1946                 2.0873
 Frc consts  --      1.5076                 2.8651                 1.5639
 IR Inten    --      3.4090                23.0452                26.9035

                     22                     23                     24
                      A                      A                      A
 Frequencies --   1202.9194              1287.2578              1347.6815
 Red. masses --      1.7786                 4.1136                 1.2184
 Frc consts  --      1.5163                 4.0161                 1.3038
 IR Inten    --      6.0359               788.8221               111.5025

                     25                     26                     27
                      A                      A                      A
 Frequencies --   1401.4768              1431.0450              1452.8712
 Red. masses --      1.2745                 1.3791                 1.0988
 Frc consts  --      1.4749                 1.6641                 1.3665
 IR Inten    --     36.5341                11.6310                52.7849

                     28                     29                     30
                      A                      A                      A
 Frequencies --   1492.7179              1501.6338              1514.0921
 Red. masses --      1.0412                 1.0672                 1.0788
 Frc consts  --      1.3670                 1.4178                 1.4572
 IR Inten    --     11.3892                 4.2548                19.3684

                     31                     32                     33
                      A                      A                      A
 Frequencies --   1839.6474              2231.2851              2910.3657
 Red. masses --     12.1501                10.8391                 1.0834
 Frc consts  --     24.2270                31.7947                 5.4069
 IR Inten    --    336.0136               115.6140               434.2755

                     34                     35                     36
                      A                      A                      A
 Frequencies --   3076.1433              3108.5052              3151.7504
 Red. masses --      1.0354                 1.0608                 1.1014
 Frc consts  --      5.7723                 6.0395                 6.4463
 IR Inten    --     10.1066                18.1053                15.1356

                     37                     38                     39
                      A                      A                      A
 Frequencies --   3155.5211              3176.3282              3877.3489
 Red. masses --      1.1048                 1.1074                 1.0675
 Frc consts  --      6.4818                 6.5826                 9.4555
 IR Inten    --      1.9217                14.6068               144.6456

 - Thermochemistry -
 -------------------
 Temperature   298.150 Kelvin.  Pressure   1.00000 Atm.
 Atom     1 has atomic number  8 and mass  15.99491

 Molecular mass:   115.03952 amu.
 Principal axes and moments of inertia in atomic units:
                           1         2         3
     Eigenvalues --   287.494382623.784192736.46271
           X            0.99993   0.00793  -0.00887
           Y           -0.00800   0.99993  -0.00827
           Z            0.00880   0.00834   0.99993
 This molecule is an asymmetric top.
 Rotational symmetry number  1.
 Rotational temperatures (Kelvin)      0.30127     0.03301     0.03165
 Rotational constants (GHZ):           6.27748     0.68784     0.65952
    4 imaginary frequencies ignored.
 Zero-point vibrational energy     287687.5 (Joules/Mol)
                                   68.75897 (Kcal/Mol)
 Warning -- explicit consideration of  11 degrees of freedom as
           vibrations may cause significant error
 Vibrational temperatures:    106.60   158.70   182.88   280.87   331.54
          (Kelvin)            354.40   479.50   603.95   650.65   793.70
                              859.66  1109.76  1149.29  1286.92  1341.20
                             1549.15  1622.49  1730.73  1852.08  1939.01
                             2016.41  2058.95  2090.36  2147.69  2160.52
                             2178.44  2646.84  3210.32  4187.37  4425.88
                             4472.45  4534.67  4540.09  4570.03  5578.64

 Zero-point correction=                           0.109574 (Hartree/Particle)
 Thermal correction to Energy=                    0.117841
 Thermal correction to Enthalpy=                  0.118785
 Thermal correction to Gibbs Free Energy=         0.075234
 Sum of electronic and zero-point Energies=           -420.065926
 Sum of electronic and thermal Energies=              -420.057660
 Sum of electronic and thermal Enthalpies=            -420.056716
 Sum of electronic and thermal Free Energies=         -420.100267

                     E (Thermal)             CV                S
                      KCal/Mol        Cal/Mol-Kelvin    Cal/Mol-Kelvin
 Total                   73.946             27.668             91.661
 Electronic               0.000              0.000              1.377
 Translational            0.889              2.981             40.136
 Rotational               0.889              2.981             29.114
 Vibrational             72.169             21.706             21.034
 Vibration     1          0.599              1.966              4.042
 Vibration     2          0.606              1.941              3.264
 Vibration     3          0.611              1.926              2.989
 Vibration     4          0.636              1.847              2.178
 Vibration     5          0.652              1.794              1.876
 Vibration     6          0.661              1.769              1.757
 Vibration     7          0.715              1.609              1.244
 Vibration     8          0.782              1.427              0.893
 Vibration     9          0.811              1.356              0.789
 Vibration    10          0.907              1.136              0.541
 Vibration    11          0.955              1.037              0.454

 1\1\GINC-AJ\Freq\UM062X\6-311++G(d,p)\C5H7O3(2)\AAYUSH\16-Aug-2025\0\\
 # freq 6-311++g(d,p) m062x\\Title Card Required\\0,2\O,4.500315,-0.266
 341,0.33718\H,4.530964,0.621295,-0.040878\C,2.192827,-0.32271,-0.06286
 5\H,3.722428,-0.714699,-0.106214\C,1.036066,0.016307,-0.092731\C,-0.36
 8271,0.390014,-0.178254\O,-0.752503,1.518927,-0.050616\O,-1.135302,-0.
 670398,-0.412639\C,-2.554042,-0.419882,-0.49778\C,-3.168224,-0.297367,
 0.882592\H,-2.940991,-1.282545,-1.036823\H,-2.713897,0.482176,-1.08944
 2\H,-4.250102,-0.183679,0.791332\H,-2.963017,-1.192664,1.471176\H,-2.7

 Normal termination of Gaussian 16 at Sat Aug 16 14:06:58 2025.
