 Gaussian 16, Revision A.03,
 Gaussian 16:  ES64L-G16RevA.03 25-Dec-2016

 --------------------------
 # freq 6-311++g(d,p) m062x
 --------------------------

 -------------------
 Title Card Required
 -------------------
 Symbolic Z-matrix:
 Charge =  0 Multiplicity = 2

                         Standard orientation:
 ---------------------------------------------------------------------
 Center     Atomic      Atomic             Coordinates (Angstroms)
 Number     Number       Type             X           Y           Z
 ---------------------------------------------------------------------
      1          8           0        4.557919   -0.254382    0.321609
      2          1           0        4.600314    0.643902   -0.036507
      3          6           0        2.259857   -0.310603   -0.076174
      4          1           0        3.650548   -0.644076   -0.060656
      5          6           0        1.101671    0.027048   -0.105520
      6          6           0       -0.305220    0.403100   -0.189433
      7          8           0       -0.691011    1.531787   -0.062615
      8          8           0       -1.073671   -0.657062   -0.424395
      9          6           0       -2.492601   -0.406513   -0.509637
     10          6           0       -3.107179   -0.284154    0.870635
     11          1           0       -2.879428   -1.269208   -1.048763
     12          1           0       -2.652557    0.495546   -1.101259
     13          1           0       -4.189063   -0.170497    0.779250
     14          1           0       -2.902002   -1.179481    1.459193
     15          1           0       -2.712874    0.587793    1.392720
 ---------------------------------------------------------------------

 SCF Done:  E(UM062X) =  -420.174413084     A.U. after   22 cycles

 The electronic state is 2-A.
 Alpha  occ. eigenvalues --  -19.69148 -19.68851 -19.63808 -10.71279 -10.61022
 Alpha  occ. eigenvalues --  -10.60143 -10.57765 -10.54142  -1.26265  -1.18759
 Alpha  occ. eigenvalues --   -1.16989  -0.91075  -0.87596  -0.78477  -0.71037
 Alpha  occ. eigenvalues --   -0.67462  -0.64591  -0.58994  -0.56993  -0.56426
 Alpha  occ. eigenvalues --   -0.54144  -0.49830  -0.47184  -0.46216  -0.45831
 Alpha  occ. eigenvalues --   -0.43036  -0.42318  -0.40047  -0.39055  -0.38118
 Alpha  occ. eigenvalues --   -0.36978
 Alpha virt. eigenvalues --   -0.02150  -0.00430   0.00076   0.01668   0.02295
 Alpha virt. eigenvalues --    0.02693   0.03630   0.04961   0.05340   0.06207
 Alpha virt. eigenvalues --    0.06922   0.07777   0.08161   0.08682   0.10236

  Beta  occ. eigenvalues --  -19.68860 -19.68244 -19.63801 -10.71261 -10.61023
  Beta  occ. eigenvalues --  -10.59130 -10.57657 -10.54142  -1.26266  -1.16983
  Beta  occ. eigenvalues --   -1.15355  -0.90539  -0.86602  -0.77961  -0.70244
  Beta  occ. eigenvalues --   -0.64792  -0.63525  -0.58994  -0.56999  -0.54256
  Beta  occ. eigenvalues --   -0.51285  -0.49809  -0.47171  -0.45789  -0.43320
  Beta  occ. eigenvalues --   -0.42437  -0.39616  -0.39057  -0.36813  -0.36189
  Beta virt. eigenvalues --   -0.16645  -0.01314  -0.00214   0.00311   0.01686
  Beta virt. eigenvalues --    0.02309   0.02897   0.03802   0.05334   0.05714
  Beta virt. eigenvalues --    0.06576   0.06994   0.07798   0.08224   0.08719

 Mulliken charges and spin densities:
               1          2
     1  O   -0.310252   0.419521
     2  H    0.270945  -0.010113
     3  C   -0.629796   0.645571
     4  H    0.426674  -0.039441
     5  C    1.106776   0.062024
     6  C   -0.893398  -0.077373
     7  O   -0.207863   0.001315
     8  O    0.011471  -0.000015
     9  C   -0.281621  -0.001427
    10  C   -0.403177   0.000211
    11  H    0.198016  -0.000151
    12  H    0.193841   0.000094
    13  H    0.166209  -0.000025
    14  H    0.167648  -0.000010
    15  H    0.184528  -0.000181
 Sum of Mulliken charges =  -0.00000   1.00000

 Dipole moment (field-independent basis, Debye):
    X=             -1.2059    Y=             -0.3334    Z=             -0.9693  Tot=              1.5827
 Quadrupole moment (field-independent basis, Debye-Ang):
   XX=            -37.6946   YY=            -52.0223   ZZ=            -48.0802
   XY=              7.8840   XZ=             -3.2971   YZ=             -0.3296

  Exact polarizability: 142.267  -8.247  61.573   2.415   0.527  50.745
 Approx polarizability: 123.863 -13.225  80.079   3.676   1.639  57.805

 ******    1 imaginary frequencies (negative Signs) ******

                      1                      2                      3
                      A                      A                      A
 Frequencies --   -945.5817                38.9988                48.5466
 Red. masses --      1.0449                 4.5481                 6.7093
 Frc consts  --      0.5505                 0.0041                 0.0093
 IR Inten    --    321.8307                 6.7964                 1.2779

                      4                      5                      6
                      A                      A                      A
 Frequencies --     81.2742               115.9210               138.4276
 Red. masses --      2.8037                 3.3802                 2.5279
 Frc consts  --      0.0109                 0.0268                 0.0285
 IR Inten    --      9.0375                 2.2495                40.6765

                      7                      8                      9
                      A                      A                      A
 Frequencies --    156.3257               222.0614               250.5465
 Red. masses --      1.8313                 1.3822                 3.8589
 Frc consts  --      0.0264                 0.0402                 0.1427
 IR Inten    --     38.9070                 6.8913                12.3419

                     10                     11                     12
                      A                      A                      A
 Frequencies --    310.0798               335.1554               423.1522
 Red. masses --      6.0969                 2.9785                 3.8860
 Frc consts  --      0.3454                 0.1971                 0.4100
 IR Inten    --     21.5038                 8.5873                 3.7825

                     13                     14                     15
                      A                      A                      A
 Frequencies --    551.5207               558.9766               601.3741
 Red. masses --      1.1489                 4.9554                 5.7560
 Frc consts  --      0.2059                 0.9122                 1.2265
 IR Inten    --    201.6642                 4.3152                33.5985

                     16                     17                     18
                      A                      A                      A
 Frequencies --    774.7289               798.3724               893.9627
 Red. masses --      9.9004                 1.2170                 3.1023
 Frc consts  --      3.5011                 0.4570                 1.4607
 IR Inten    --     18.3919                 4.0729                 7.4955

                     19                     20                     21
                      A                      A                      A
 Frequencies --    929.5210              1075.7803              1127.4427
 Red. masses --      2.8528                 4.1476                 2.0833
 Frc consts  --      1.4523                 2.8281                 1.5602
 IR Inten    --      2.0059                25.0658                26.6840

                     22                     23                     24
                      A                      A                      A
 Frequencies --   1202.4833              1282.0241              1299.2612
 Red. masses --      1.7745                 2.8236                 1.3552
 Frc consts  --      1.5118                 2.7343                 1.3479
 IR Inten    --      5.8946               678.3781               155.3081

                     25                     26                     27
                      A                      A                      A
 Frequencies --   1347.0840              1401.2381              1430.7746
 Red. masses --      1.2114                 1.2735                 1.3782
 Frc consts  --      1.2951                 1.4733                 1.6623
 IR Inten    --    106.8266                34.9405                 9.8644

                     28                     29                     30
                      A                      A                      A
 Frequencies --   1492.6794              1501.5620              1513.9810
 Red. masses --      1.0412                 1.0675                 1.0782
 Frc consts  --      1.3669                 1.4180                 1.4561
 IR Inten    --     11.5988                 4.4747                19.2345

                     31                     32                     33
                      A                      A                      A
 Frequencies --   1837.5070              1900.1420              2277.7513
 Red. masses --     11.2941                 1.1498                 7.7105
 Frc consts  --     22.4677                 2.4458                23.5693
 IR Inten    --    309.2586               730.9327                11.3096

                     34                     35                     36
                      A                      A                      A
 Frequencies --   3076.0664              3108.4597              3151.6313
 Red. masses --      1.0354                 1.0608                 1.1014
 Frc consts  --      5.7720                 6.0392                 6.4458
 IR Inten    --     10.3075                18.3525                15.3397

                     37                     38                     39
                      A                      A                      A
 Frequencies --   3155.4254              3176.2156              3844.2830
 Red. masses --      1.1049                 1.1074                 1.0666
 Frc consts  --      6.4814                 6.5822                 9.2876
 IR Inten    --      1.9846                14.7333               155.4341

 - Thermochemistry -
 -------------------
 Temperature   298.150 Kelvin.  Pressure   1.00000 Atm.
 Atom     1 has atomic number  8 and mass  15.99491

 Molecular mass:   115.03952 amu.
 Principal axes and moments of inertia in atomic units:
                           1         2         3
     Eigenvalues --   287.066512619.844222732.45935
           X            0.99993   0.00839  -0.00848
           Y           -0.00847   0.99992  -0.00941
           Z            0.00840   0.00948   0.99992
 This molecule is an asymmetric top.
 Rotational symmetry number  1.
 Rotational temperatures (Kelvin)      0.30172     0.03306     0.03170
 Rotational constants (GHZ):           6.28684     0.68887     0.66048
    1 imaginary frequencies ignored.
 Zero-point vibrational energy     283698.8 (Joules/Mol)
                                   67.80564 (Kcal/Mol)
 Warning -- explicit consideration of  14 degrees of freedom as
           vibrations may cause significant error
 Vibrational temperatures:     56.11    69.85   116.94   166.78   199.17
          (Kelvin)            224.92   319.50   360.48   446.14   482.21
                              608.82   793.52   804.24   865.24  1114.66
                             1148.68  1286.21  1337.37  1547.81  1622.14
                             1730.11  1844.55  1869.35  1938.15  2016.07
                             2058.57  2147.63  2160.41  2178.28  2643.76
                             2733.88  3277.18  4425.77  4472.38  4534.49
                             4539.95  4569.87  5531.07

 Zero-point correction=                           0.108055 (Hartree/Particle)
 Thermal correction to Energy=                    0.118371
 Thermal correction to Enthalpy=                  0.119316
 Thermal correction to Gibbs Free Energy=         0.070406
 Sum of electronic and zero-point Energies=           -420.066358
 Sum of electronic and thermal Energies=              -420.056042
 Sum of electronic and thermal Enthalpies=            -420.055097
 Sum of electronic and thermal Free Energies=         -420.104007

                     E (Thermal)             CV                S
                      KCal/Mol        Cal/Mol-Kelvin    Cal/Mol-Kelvin
 Total                   74.279             33.141            102.939
 Electronic               0.000              0.000              1.377
 Translational            0.889              2.981             40.136
 Rotational               0.889              2.981             29.109
 Vibrational             72.502             27.180             32.316
 Vibration     1          0.594              1.981              5.309
 Vibration     2          0.595              1.978              4.876
 Vibration     3          0.600              1.962              3.860
 Vibration     4          0.608              1.936              3.167
 Vibration     5          0.614              1.915              2.825
 Vibration     6          0.620              1.896              2.594
 Vibration     7          0.648              1.807              1.942
 Vibration     8          0.663              1.762              1.727
 Vibration     9          0.699              1.655              1.362
 Vibration    10          0.716              1.605              1.235
 Vibration    11          0.785              1.420              0.881
 Vibration    12          0.907              1.136              0.541
 Vibration    13          0.915              1.120              0.526
 Vibration    14          0.960              1.029              0.447

 Optimization completed.
    -- Stationary point found.

 1\1\GINC-AJ\Freq\UM062X\6-311++G(d,p)\C5H7O3(2)\AAYUSH\23-Jun-2025\0\\
 # freq 6-311++g(d,p) m062x\\Title Card Required\\0,2\O,4.557919,-0.254
 382,0.321609\H,4.600314,0.643902,-0.036507\C,2.259857,-0.310603,-0.076
 174\H,3.650548,-0.644076,-0.060656\C,1.101671,0.027048,-0.10552\C,-0.3
 0522,0.4031,-0.189433\O,-0.691011,1.531787,-0.062615\O,-1.073671,-0.65
 7062,-0.424395\C,-2.492601,-0.406513,-0.509637\C,-3.107179,-0.284154,0
 .870635\H,-2.879428,-1.269208,-1.048763\H,-2.652557,0.495546,-1.101259
 \H,-4.189063,-0.170497,0.77925\H,-2.902002,-1.179481,1.459193\H,-2.712

 Normal termination of Gaussian 16 at Mon Jun 23 00:40:18 2025.
