 Gaussian 16, Revision A.03,
 Gaussian 16:  ES64L-G16RevA.03 25-Dec-2016

 --------------------------
 # ccsd(t)/6-311++g(d,p) sp
 --------------------------

 -------------------
 Title Card Required
 -------------------
 Symbolic Z-matrix:
 Charge =  0 Multiplicity = 2

                         Standard orientation:
 ---------------------------------------------------------------------
 Center     Atomic      Atomic             Coordinates (Angstroms)
 Number     Number       Type             X           Y           Z
 ---------------------------------------------------------------------
      1          8           0        4.561282   -0.246381    0.330205
      2          1           0        4.587612    0.636377   -0.058097
      3          6           0        2.251065   -0.306206   -0.071483
      4          1           0        3.824703   -0.717565   -0.136835
      5          6           0        1.094330    0.031733   -0.103163
      6          6           0       -0.309566    0.403316   -0.190731
      7          8           0       -0.694721    1.532202   -0.065984
      8          8           0       -1.075100   -0.658676   -0.422584
      9          6           0       -2.493919   -0.409840   -0.508952
     10          6           0       -3.108709   -0.284311    0.870868
     11          1           0       -2.879872   -1.274264   -1.045890
     12          1           0       -2.654452    0.490531   -1.103008
     13          1           0       -4.190668   -0.171947    0.778923
     14          1           0       -2.902815   -1.177860    1.461867
     15          1           0       -2.715404    0.589421    1.390712
 ---------------------------------------------------------------------

 SCF Done:  E(UHF) =  -417.942900536     A.U. after   31 cycles
 E2 =    -0.1261824965D+01 EUMP2 =    -0.41920472550049D+03
 CCSD(T)= -0.41932483134D+03

 The electronic state is 2-A.
 Alpha  occ. eigenvalues --  -20.62148 -20.60144 -20.56774 -11.42564 -11.32013
 Alpha  occ. eigenvalues --  -11.30372 -11.26239 -11.23115  -1.49039  -1.39483
 Alpha  occ. eigenvalues --   -1.38584  -1.09562  -1.05381  -0.93660  -0.84514
 Alpha  occ. eigenvalues --   -0.78630  -0.76638  -0.70210  -0.67283  -0.66685
 Alpha  occ. eigenvalues --   -0.63929  -0.59024  -0.57587  -0.55296  -0.54793
 Alpha  occ. eigenvalues --   -0.53902  -0.51196  -0.48944  -0.47486  -0.46066
 Alpha  occ. eigenvalues --   -0.45916
 Alpha virt. eigenvalues --    0.03924   0.04817   0.05641   0.06360   0.07394
 Alpha virt. eigenvalues --    0.07922   0.08298   0.09081   0.11080   0.12177
 Alpha virt. eigenvalues --    0.12938   0.13280   0.14331   0.15336   0.16046

  Beta  occ. eigenvalues --  -20.62166 -20.58900 -20.57417 -11.42069 -11.30380
  Beta  occ. eigenvalues --  -11.28048 -11.26431 -11.23117  -1.49355  -1.39619
  Beta  occ. eigenvalues --   -1.35416  -1.08896  -1.03986  -0.91970  -0.83388
  Beta  occ. eigenvalues --   -0.76843  -0.73142  -0.70835  -0.67664  -0.64321
  Beta  occ. eigenvalues --   -0.59501  -0.59014  -0.56443  -0.54877  -0.52099
  Beta  occ. eigenvalues --   -0.51337  -0.49746  -0.48239  -0.44372  -0.43902
  Beta virt. eigenvalues --   -0.00120   0.04003   0.05615   0.06129   0.06373
  Beta virt. eigenvalues --    0.07484   0.08034   0.09064   0.09967   0.11580
  Beta virt. eigenvalues --    0.12629   0.13239   0.13514   0.14841   0.15517

 Mulliken charges and spin densities:
               1          2
     1  O   -0.377582   0.198673
     2  H    0.271233  -0.011559
     3  C   -0.548662   1.969289
     4  H    0.348604  -0.082270
     5  C    1.313663  -1.088141
     6  C   -0.923395   0.143167
     7  O   -0.272224  -0.132854
     8  O   -0.086904   0.003352
     9  C   -0.166590   0.002443
    10  C   -0.360120  -0.001308
    11  H    0.169043  -0.000253
    12  H    0.176456  -0.000137
    13  H    0.137228  -0.000118
    14  H    0.145731  -0.000114
    15  H    0.173518  -0.000172
 Sum of Mulliken charges =  -0.00000   1.00000

 Dipole moment (field-independent basis, Debye):
    X=             -1.8395    Y=             -0.8174    Z=             -1.4595  Tot=              2.4864
 Quadrupole moment (field-independent basis, Debye-Ang):
   XX=            -44.1720   YY=            -51.9347   ZZ=            -47.7739
   XY=              6.9177   XZ=             -5.1038   YZ=             -0.1294

 Normal termination of Gaussian 16 at Sat Jun 28 20:02:08 2025.
