 Gaussian 16, Revision A.03,
 Gaussian 16:  ES64L-G16RevA.03 25-Dec-2016

 --------------------------
 # ccsd(t)/6-311++g(d,p) sp
 --------------------------

 -------------------
 Title Card Required
 -------------------
 Symbolic Z-matrix:
 Charge =  0 Multiplicity = 2

                         Standard orientation:
 ---------------------------------------------------------------------
 Center     Atomic      Atomic             Coordinates (Angstroms)
 Number     Number       Type             X           Y           Z
 ---------------------------------------------------------------------
      1          8           0        4.559326   -0.250716    0.325340
      2          1           0        4.593701    0.640355   -0.046032
      3          6           0        2.255224   -0.308508   -0.074232
      4          1           0        3.741009   -0.678777   -0.094130
      5          6           0        1.097885    0.029550   -0.104391
      6          6           0       -0.307464    0.403143   -0.190049
      7          8           0       -0.692697    1.531939   -0.063917
      8          8           0       -1.074344   -0.657744   -0.423643
      9          6           0       -2.493292   -0.407999   -0.509357
     10          6           0       -3.107931   -0.284403    0.870732
     11          1           0       -2.879636   -1.271432   -1.047604
     12          1           0       -2.653483    0.493355   -1.101991
     13          1           0       -4.189845   -0.171348    0.779084
     14          1           0       -2.902423   -1.178994    1.460283
     15          1           0       -2.714141    0.588306    1.391929
 ---------------------------------------------------------------------

 SCF Done:  E(UHF) =  -417.938536706     A.U. after   34 cycles
 E2 =    -0.1265014239D+01 EUMP2 =    -0.41920355094459D+03
 CCSD(T)= -0.41932355789D+03

 The electronic state is 2-A.
 Alpha  occ. eigenvalues --  -20.62145 -20.61045 -20.56788 -11.42594 -11.31903
 Alpha  occ. eigenvalues --  -11.30371 -11.26297 -11.23115  -1.49029  -1.40036
 Alpha  occ. eigenvalues --   -1.38582  -1.09496  -1.05366  -0.93654  -0.84612
 Alpha  occ. eigenvalues --   -0.79495  -0.76668  -0.70208  -0.67344  -0.66864
 Alpha  occ. eigenvalues --   -0.63977  -0.59008  -0.57239  -0.55426  -0.54933
 Alpha  occ. eigenvalues --   -0.54453  -0.51192  -0.48924  -0.47399  -0.46028
 Alpha  occ. eigenvalues --   -0.45883
 Alpha virt. eigenvalues --    0.03927   0.04809   0.05647   0.06360   0.07349
 Alpha virt. eigenvalues --    0.08001   0.08297   0.09081   0.11111   0.12189
 Alpha virt. eigenvalues --    0.12981   0.13298   0.14350   0.15497   0.15988

  Beta  occ. eigenvalues --  -20.62162 -20.59445 -20.57417 -11.42110 -11.30379
  Beta  occ. eigenvalues --  -11.28099 -11.26501 -11.23116  -1.49339  -1.39593
  Beta  occ. eigenvalues --   -1.34723  -1.08876  -1.04005  -0.91997  -0.83416
  Beta  occ. eigenvalues --   -0.76839  -0.72752  -0.70819  -0.67644  -0.64320
  Beta  occ. eigenvalues --   -0.59491  -0.58704  -0.56415  -0.54868  -0.52303
  Beta  occ. eigenvalues --   -0.51348  -0.49726  -0.48219  -0.44343  -0.43883
  Beta virt. eigenvalues --   -0.00520   0.04002   0.05620   0.06000   0.06369
  Beta virt. eigenvalues --    0.07414   0.08109   0.09064   0.09909   0.11573
  Beta virt. eigenvalues --    0.12558   0.13245   0.13560   0.14796   0.15488

 Mulliken charges and spin densities:
               1          2
     1  O   -0.368128   0.280563
     2  H    0.270004  -0.014449
     3  C   -0.564156   1.908176
     4  H    0.368070  -0.110425
     5  C    1.321879  -1.086079
     6  C   -0.944396   0.148413
     7  O   -0.272283  -0.129957
     8  O   -0.086626   0.003360
     9  C   -0.166266   0.002432
    10  C   -0.360050  -0.001266
    11  H    0.169188  -0.000248
    12  H    0.176474  -0.000118
    13  H    0.137138  -0.000121
    14  H    0.145756  -0.000115
    15  H    0.173396  -0.000164
 Sum of Mulliken charges =  -0.00000   1.00000

 Dipole moment (field-independent basis, Debye):
    X=             -1.7767    Y=             -0.6886    Z=             -1.3098  Tot=              2.3122
 Quadrupole moment (field-independent basis, Debye-Ang):
   XX=            -43.4336   YY=            -52.1068   ZZ=            -47.8187
   XY=              7.4595   XZ=             -4.4244   YZ=             -0.2319

 836\PMP3-0=-419.2490049\MP4SDQ=-419.2572657\CCSD=-419.2683714\CCSD(T)=
 Normal termination of Gaussian 16 at Mon Aug 18 17:20:39 2025.
