 Gaussian 16, Revision A.03,
 Gaussian 16:  ES64L-G16RevA.03 25-Dec-2016

 -------------------
 # freq 6-31+g m062x
 -------------------

 -------------------
 Title Card Required
 -------------------
 Symbolic Z-matrix:
 Charge =  0 Multiplicity = 2

                         Standard orientation:
 ---------------------------------------------------------------------
 Center     Atomic      Atomic             Coordinates (Angstroms)
 Number     Number       Type             X           Y           Z
 ---------------------------------------------------------------------
      1          8           0        4.558293   -0.256201    0.320167
      2          1           0        4.604646    0.646264   -0.031920
      3          6           0        2.263137   -0.312025   -0.077043
      4          1           0        3.575405   -0.626317   -0.047375
      5          6           0        1.104284    0.025338   -0.106121
      6          6           0       -0.303601    0.403101   -0.189131
      7          8           0       -0.689912    1.531759   -0.062346
      8          8           0       -1.073161   -0.656784   -0.424593
      9          6           0       -2.492012   -0.405764   -0.509669
     10          6           0       -3.106595   -0.283609    0.870658
     11          1           0       -2.879191   -1.268218   -1.048978
     12          1           0       -2.651850    0.496497   -1.101017
     13          1           0       -4.188465   -0.169599    0.779389
     14          1           0       -2.901625   -1.179142    1.458987
     15          1           0       -2.711952    0.588081    1.392917
 ---------------------------------------------------------------------

 SCF Done:  E(UM062X) =  -419.921358750     A.U. after   24 cycles

 The electronic state is 2-A.
 Alpha  occ. eigenvalues --  -19.72907 -19.71073 -19.66747 -10.73436 -10.61922
 Alpha  occ. eigenvalues --  -10.61022 -10.59149 -10.54890  -1.28452  -1.20647
 Alpha  occ. eigenvalues --   -1.19078  -0.91554  -0.88136  -0.78889  -0.71723
 Alpha  occ. eigenvalues --   -0.68352  -0.64749  -0.58837  -0.57232  -0.56972
 Alpha  occ. eigenvalues --   -0.54476  -0.49914  -0.47319  -0.46884  -0.45762
 Alpha  occ. eigenvalues --   -0.43431  -0.42268  -0.39837  -0.38725  -0.38040
 Alpha  occ. eigenvalues --   -0.37028
 Alpha virt. eigenvalues --   -0.02112   0.01308   0.02125   0.03393   0.04002
 Alpha virt. eigenvalues --    0.04683   0.04938   0.06514   0.07409   0.08364
 Alpha virt. eigenvalues --    0.08826   0.09039   0.09271   0.10648   0.12410

  Beta  occ. eigenvalues --  -19.71739 -19.71080 -19.66747 -10.73421 -10.61923
  Beta  occ. eigenvalues --  -10.60189 -10.59073 -10.54890  -1.28453  -1.19081
  Beta  occ. eigenvalues --   -1.16588  -0.91112  -0.87346  -0.78513  -0.70925
  Beta  occ. eigenvalues --   -0.65040  -0.64097  -0.58847  -0.57202  -0.54566
  Beta  occ. eigenvalues --   -0.51275  -0.49899  -0.47282  -0.45704  -0.43660
  Beta  occ. eigenvalues --   -0.42370  -0.39462  -0.38730  -0.37004  -0.36437
  Beta virt. eigenvalues --   -0.17003  -0.01482   0.01709   0.02211   0.03418
  Beta virt. eigenvalues --    0.04561   0.04753   0.04990   0.06621   0.07616
  Beta virt. eigenvalues --    0.08407   0.08891   0.09063   0.09438   0.10868

 Mulliken charges and spin densities:
               1          2
     1  O   -0.497987   0.572096
     2  H    0.423912  -0.019880
     3  C    1.346878   0.129434
     4  H    0.501727  -0.048324
     5  C   -0.482209   0.309012
     6  C   -1.044307   0.058941
     7  O   -0.350594  -0.000597
     8  O   -0.206964  -0.000605
     9  C   -0.252375   0.000396
    10  C   -0.560528  -0.000339
    11  H    0.221930  -0.000029
    12  H    0.233202  -0.000045
    13  H    0.209290  -0.000068
    14  H    0.221556  -0.000003
    15  H    0.236468   0.000012
 Sum of Mulliken charges =  -0.00000   1.00000

 Dipole moment (field-independent basis, Debye):
    X=             -0.9398    Y=             -0.0400    Z=             -1.0721  Tot=              1.4263
 Quadrupole moment (field-independent basis, Debye-Ang):
   XX=            -36.3855   YY=            -53.4387   ZZ=            -48.4809
   XY=              9.1042   XZ=             -3.8035   YZ=             -0.4023

  Exact polarizability: 131.714  -6.865  58.953   3.354   0.447  46.205
 Approx polarizability: 116.379 -13.451  74.862   4.284   1.904  47.792

 ******    5 imaginary frequencies (negative Signs) ******

                      1                      2                      3
                      A                      A                      A
 Frequencies --  -1279.6501              -473.0420              -149.1564
 Red. masses --      1.0281                 1.0480                 3.5737
 Frc consts  --      0.9919                 0.1382                 0.0468
 IR Inten    --    448.7801               117.9215                29.1962

                      4                      5                      6
                      A                      A                      A
 Frequencies --    -76.4015               -23.4561                63.7418
 Red. masses --      7.3799                 2.9681                 4.3307
 Frc consts  --      0.0254                 0.0010                 0.0104
 IR Inten    --      5.1705                 0.3916                13.4851

                      7                      8                      9
                      A                      A                      A
 Frequencies --    110.1398               184.9829               262.5275
 Red. masses --      3.7857                 1.2827                 3.9476
 Frc consts  --      0.0271                 0.0259                 0.1603
 IR Inten    --      4.2583                 2.2143                23.3067

                     10                     11                     12
                      A                      A                      A
 Frequencies --    316.0548               374.8909               424.4310
 Red. masses --      3.0954                 5.9728                 3.7508
 Frc consts  --      0.1822                 0.4946                 0.3981
 IR Inten    --      7.2210                10.4764                 4.2899

                     13                     14                     15
                      A                      A                      A
 Frequencies --    552.9167               603.6344               640.5164
 Red. masses --      1.9480                 3.2318                 6.1027
 Frc consts  --      0.3509                 0.6938                 1.4751
 IR Inten    --    107.5368                62.6314                64.8461

                     16                     17                     18
                      A                      A                      A
 Frequencies --    802.9654               817.5984               896.5673
 Red. masses --      3.4641                 1.6753                 3.1960
 Frc consts  --      1.3159                 0.6598                 1.5136
 IR Inten    --     17.8679                 5.6964                11.4703

                     19                     20                     21
                      A                      A                      A
 Frequencies --    939.0904              1052.1780              1115.2961
 Red. masses --      2.3066                 1.4264                 3.8377
 Frc consts  --      1.1985                 0.9304                 2.8125
 IR Inten    --      8.8029                86.1017                 2.1860

                     22                     23                     24
                      A                      A                      A
 Frequencies --   1157.6730              1227.2167              1325.3933
 Red. masses --      2.0949                 1.7638                 2.1896
 Frc consts  --      1.6542                 1.5651                 2.2663
 IR Inten    --     25.6927                 5.1921               483.2306

                     25                     26                     27
                      A                      A                      A
 Frequencies --   1370.0042              1442.5848              1455.9886
 Red. masses --      1.6284                 1.3636                 1.2639
 Frc consts  --      1.8007                 1.6719                 1.5787
 IR Inten    --    323.9971                44.5946                16.1695

                     28                     29                     30
                      A                      A                      A
 Frequencies --   1528.0862              1535.8482              1544.7956
 Red. masses --      1.0422                 1.0765                 1.0667
 Frc consts  --      1.4338                 1.4962                 1.4998
 IR Inten    --     15.0489                 7.7605                22.0371

                     31                     32                     33
                      A                      A                      A
 Frequencies --   1674.2053              1905.4490              2353.9541
 Red. masses --      1.0691                12.4038                10.4357
 Frc consts  --      1.7656                26.5338                34.0697
 IR Inten    --    479.8659               322.8383                49.1109

                     34                     35                     36
                      A                      A                      A
 Frequencies --   3108.0813              3138.1521              3188.1020
 Red. masses --      1.0351                 1.0602                 1.1008
 Frc consts  --      5.8913                 6.1514                 6.5919
 IR Inten    --     13.4489                20.3657                12.8450

                     37                     38                     39
                      A                      A                      A
 Frequencies --   3191.1140              3212.0724              3836.3473
 Red. masses --      1.1022                 1.1053                 1.0653
 Frc consts  --      6.6128                 6.7188                 9.2372
 IR Inten    --      7.7848                17.5121                92.0751

 - Thermochemistry -
 -------------------
 Temperature   298.150 Kelvin.  Pressure   1.00000 Atm.
 Atom     1 has atomic number  8 and mass  15.99491

 Molecular mass:   115.03952 amu.
 Principal axes and moments of inertia in atomic units:
                           1         2         3
     Eigenvalues --   286.966002618.509502731.10341
           X            0.99993   0.00857  -0.00838
           Y           -0.00865   0.99992  -0.00962
           Z            0.00830   0.00969   0.99992
 This molecule is an asymmetric top.
 Rotational symmetry number  1.
 Rotational temperatures (Kelvin)      0.30183     0.03308     0.03171
 Rotational constants (GHZ):           6.28904     0.68922     0.66081
    5 imaginary frequencies ignored.
 Zero-point vibrational energy     283231.4 (Joules/Mol)
                                   67.69394 (Kcal/Mol)
 Warning -- explicit consideration of   9 degrees of freedom as
           vibrations may cause significant error
 Vibrational temperatures:     91.71   158.47   266.15   377.72   454.73
          (Kelvin)            539.38   610.66   795.52   868.50   921.56
                             1155.29  1176.34  1289.96  1351.14  1513.85
                             1604.66  1665.63  1765.69  1906.95  1971.13
                             2075.56  2094.84  2198.58  2209.74  2222.62
                             2408.81  2741.52  3386.81  4471.84  4515.10
                             4586.97  4591.30  4621.46  5519.65

 Zero-point correction=                           0.107877 (Hartree/Particle)
 Thermal correction to Energy=                    0.115179
 Thermal correction to Enthalpy=                  0.116123
 Thermal correction to Gibbs Free Energy=         0.074419
 Sum of electronic and zero-point Energies=           -419.813482
 Sum of electronic and thermal Energies=              -419.806180
 Sum of electronic and thermal Enthalpies=            -419.805236
 Sum of electronic and thermal Free Energies=         -419.846940

                     E (Thermal)             CV                S
                      KCal/Mol        Cal/Mol-Kelvin    Cal/Mol-Kelvin
 Total                   72.276             25.089             87.774
 Electronic               0.000              0.000              1.377
 Translational            0.889              2.981             40.136
 Rotational               0.889              2.981             29.108
 Vibrational             70.498             19.128             17.153
 Vibration     1          0.597              1.972              4.338
 Vibration     2          0.606              1.941              3.266
 Vibration     3          0.631              1.860              2.278
 Vibration     4          0.670              1.741              1.645
 Vibration     5          0.703              1.643              1.330
 Vibration     6          0.746              1.524              1.060
 Vibration     7          0.786              1.417              0.877
 Vibration     8          0.908              1.133              0.538
 Vibration     9          0.962              1.024              0.443

 Normal termination of Gaussian 16 at Fri Jun 20 12:22:41 2025.
