 Gaussian 16, Revision A.03,
 Gaussian 16:  ES64L-G16RevA.03 25-Dec-2016

 --------------------------
 # ccsd(t)/6-311++g(d,p) sp
 --------------------------

 -------------------
 Title Card Required
 -------------------
 Symbolic Z-matrix:
 Charge =  0 Multiplicity = 2

                         Standard orientation:
 ---------------------------------------------------------------------
 Center     Atomic      Atomic             Coordinates (Angstroms)
 Number     Number       Type             X           Y           Z
 ---------------------------------------------------------------------
      1          6           0        2.981055    1.313411    0.302254
      2          1           0        3.742908    2.041971    0.455218
      3          6           0        2.125870    0.492462    0.129340
      4          6           0        1.120420   -0.532068   -0.106616
      5          8           0        1.350208   -1.612689   -0.567373
      6          8           0       -0.095080   -0.103719    0.258247
      7          6           0       -1.173703   -1.032925    0.037049
      8          6           0       -2.416383   -0.397754    0.583460
      9          1           0       -1.249061   -1.231395   -1.033993
     10          1           0       -0.937011   -1.973577    0.545073
     11          1           0       -2.358702   -0.146502    1.640990
     12          1           0       -2.519998    0.769824   -0.033294
     13          1           0       -3.325070   -0.938359    0.326000
     14          8           0       -2.239455    1.790048   -0.593604
     15          1           0       -1.302000    1.830160   -0.351080
 ---------------------------------------------------------------------

 SCF Done:  E(UHF) =  -417.959984627     A.U. after   21 cycles
 E2 =    -0.1291695928D+01 EUMP2 =    -0.41925168055573D+03
 CCSD(T)= -0.41935060833D+03

 The electronic state is 2-A.
 Alpha  occ. eigenvalues --  -20.63248 -20.58786 -20.57664 -11.42995 -11.31618
 Alpha  occ. eigenvalues --  -11.27799 -11.27165 -11.26995  -1.49936  -1.39817
 Alpha  occ. eigenvalues --   -1.35696  -1.09708  -1.06452  -0.93934  -0.85395
 Alpha  occ. eigenvalues --   -0.79024  -0.73817  -0.72396  -0.71040  -0.69293
 Alpha  occ. eigenvalues --   -0.62877  -0.62165  -0.59951  -0.57672  -0.55163
 Alpha  occ. eigenvalues --   -0.51828  -0.49946  -0.49440  -0.43808  -0.43661
 Alpha  occ. eigenvalues --   -0.42889
 Alpha virt. eigenvalues --    0.03504   0.04148   0.06000   0.06660   0.06991
 Alpha virt. eigenvalues --    0.07476   0.09157   0.09995   0.11204   0.11348
 Alpha virt. eigenvalues --    0.12320   0.13621   0.14563   0.15324   0.16331

  Beta  occ. eigenvalues --  -20.63227 -20.57664 -20.56025 -11.43000 -11.31776
  Beta  occ. eigenvalues --  -11.27798 -11.26994 -11.25323  -1.49904  -1.39774
  Beta  occ. eigenvalues --   -1.26548  -1.09013  -1.04699  -0.91867  -0.83509
  Beta  occ. eigenvalues --   -0.78878  -0.73783  -0.71079  -0.70399  -0.64246
  Beta  occ. eigenvalues --   -0.61707  -0.59157  -0.57573  -0.54620  -0.50474
  Beta  occ. eigenvalues --   -0.49622  -0.48716  -0.48469  -0.43695  -0.43649
  Beta virt. eigenvalues --    0.03504   0.03866   0.04868   0.06040   0.06741
  Beta virt. eigenvalues --    0.07414   0.07737   0.09281   0.10277   0.11354
  Beta virt. eigenvalues --    0.11739   0.12379   0.13707   0.14651   0.15548

 Mulliken charges and spin densities:
               1          2
     1  C   -0.641511  -0.000034
     2  H    0.222642  -0.000082
     3  C    1.245354  -0.000863
     4  C   -0.555409  -0.001615
     5  O   -0.293881  -0.000268
     6  O   -0.136378  -0.003197
     7  C   -0.064955  -0.068115
     8  C   -0.685136   0.754480
     9  H    0.224588   0.006158
    10  H    0.180246   0.029025
    11  H    0.189799  -0.039806
    12  H    0.290619  -0.199694
    13  H    0.176288  -0.036106
    14  O   -0.390209   0.573649
    15  H    0.237943  -0.013532
 Sum of Mulliken charges =  -0.00000   1.00000

 Dipole moment (field-independent basis, Debye):
    X=              0.6096    Y=             -0.0070    Z=              1.9819  Tot=              2.0736
 Quadrupole moment (field-independent basis, Debye-Ang):
   XX=            -44.4243   YY=            -50.8646   ZZ=            -48.9280
   XY=             17.4607   XZ=             -0.7425   YZ=              0.0602

 MP3-0=-419.2743308\MP4SDQ=-419.2972706\CCSD=-419.2957119\CCSD(T)=-419.
 Normal termination of Gaussian 16 at Mon Apr 21 10:38:28 2025.
