 Gaussian 16, Revision A.03,
 Gaussian 16:  ES64L-G16RevA.03 25-Dec-2016

 --------------------------
 # ccsd(t)/6-311++g(d,p) sp
 --------------------------

 -------------------
 Title Card Required
 -------------------
 Symbolic Z-matrix:
 Charge =  0 Multiplicity = 2

                         Standard orientation:
 ---------------------------------------------------------------------
 Center     Atomic      Atomic             Coordinates (Angstroms)
 Number     Number       Type             X           Y           Z
 ---------------------------------------------------------------------
      1          6           0        2.984603    1.306528    0.308820
      2          1           0        3.748426    2.032214    0.465191
      3          6           0        2.127453    0.488403    0.132185
      4          6           0        1.118891   -0.532626   -0.108237
      5          8           0        1.346986   -1.612196   -0.572514
      6          8           0       -0.095274   -0.101764    0.256250
      7          6           0       -1.176390   -1.030690    0.032288
      8          6           0       -2.421270   -0.390296    0.579096
      9          1           0       -1.250172   -1.221375   -1.040261
     10          1           0       -0.937356   -1.971166    0.534069
     11          1           0       -2.357073   -0.180077    1.646197
     12          1           0       -2.579370    0.614425    0.055231
     13          1           0       -3.313994   -0.970161    0.344610
     14          8           0       -2.229174    1.816353   -0.599603
     15          1           0       -1.290490    1.829082   -0.343013
 ---------------------------------------------------------------------

 SCF Done:  E(UHF) =  -417.974954063     A.U. after   33 cycles
 E2 =    -0.1273294962D+01 EUMP2 =    -0.41924824902498D+03
 CCSD(T)= -0.41935003669D+03

 The electronic state is 2-A.
 Alpha  occ. eigenvalues --  -20.62960 -20.62750 -20.57323 -11.42646 -11.30375
 Alpha  occ. eigenvalues --  -11.27665 -11.26893 -11.23424  -1.49454  -1.39685
 Alpha  occ. eigenvalues --   -1.39105  -1.08963  -1.05312  -0.93051  -0.84611
 Alpha  occ. eigenvalues --   -0.78462  -0.73665  -0.72447  -0.70544  -0.69493
 Alpha  occ. eigenvalues --   -0.66940  -0.60897  -0.59011  -0.56143  -0.55856
 Alpha  occ. eigenvalues --   -0.53411  -0.49667  -0.49178  -0.46059  -0.43560
 Alpha  occ. eigenvalues --   -0.43520
 Alpha virt. eigenvalues --    0.03464   0.04537   0.06302   0.06599   0.07060
 Alpha virt. eigenvalues --    0.07621   0.09159   0.10011   0.10972   0.11527
 Alpha virt. eigenvalues --    0.12388   0.13801   0.14756   0.15522   0.16357

  Beta  occ. eigenvalues --  -20.62745 -20.59039 -20.57325 -11.42647 -11.30436
  Beta  occ. eigenvalues --  -11.27664 -11.26894 -11.22664  -1.49445  -1.39353
  Beta  occ. eigenvalues --   -1.25091  -1.08778  -1.04504  -0.92143  -0.83676
  Beta  occ. eigenvalues --   -0.78403  -0.73632  -0.70507  -0.70111  -0.65272
  Beta  occ. eigenvalues --   -0.60796  -0.58952  -0.56204  -0.53363  -0.51292
  Beta  occ. eigenvalues --   -0.50744  -0.49332  -0.47929  -0.43576  -0.43525
  Beta virt. eigenvalues --    0.03439   0.04521   0.05326   0.06334   0.07060
  Beta virt. eigenvalues --    0.07572   0.08363   0.09464   0.10503   0.11382
  Beta virt. eigenvalues --    0.11731   0.12557   0.13905   0.14798   0.15616

 Mulliken charges and spin densities:
               1          2
     1  C   -0.645359   0.000485
     2  H    0.221425  -0.000121
     3  C    1.245577  -0.000792
     4  C   -0.553981  -0.000577
     5  O   -0.293135  -0.000358
     6  O   -0.143729  -0.002002
     7  C   -0.079816  -0.026135
     8  C   -0.695665   0.276053
     9  H    0.214551   0.001028
    10  H    0.171593   0.007924
    11  H    0.166094  -0.016565
    12  H    0.231893  -0.096374
    13  H    0.154200  -0.010205
    14  O   -0.238729   0.893681
    15  H    0.245079  -0.026043
 Sum of Mulliken charges =  -0.00000   1.00000

 Dipole moment (field-independent basis, Debye):
    X=              0.6104    Y=              1.3226    Z=              1.3175  Tot=              1.9640
 Quadrupole moment (field-independent basis, Debye-Ang):
   XX=            -45.3419   YY=            -48.6526   ZZ=            -48.9305
   XY=             14.3413   XZ=              0.9280   YZ=             -0.8651

 \PMP3-0=-419.2747815\MP4SDQ=-419.2975453\CCSD=-419.2966598\CCSD(T)=-41
 Normal termination of Gaussian 16 at Sun Apr 20 06:51:01 2025.
