 Gaussian 16, Revision A.03,
 Gaussian 16:  ES64L-G16RevA.03 25-Dec-2016

 --------------------------
 # ccsd(t)/6-311++g(d,p) sp
 --------------------------

 -------------------
 Title Card Required
 -------------------
 Symbolic Z-matrix:
 Charge =  0 Multiplicity = 2

                         Standard orientation:
 ---------------------------------------------------------------------
 Center     Atomic      Atomic             Coordinates (Angstroms)
 Number     Number       Type             X           Y           Z
 ---------------------------------------------------------------------
      1          6           0        2.984067    1.307682    0.307371
      2          1           0        3.747584    2.033859    0.462983
      3          6           0        2.127204    0.489083    0.131570
      4          6           0        1.119113   -0.532554   -0.107839
      5          8           0        1.347432   -1.612436   -0.571230
      6          8           0       -0.095252   -0.101961    0.256589
      7          6           0       -1.175973   -1.030977    0.033352
      8          6           0       -2.420360   -0.389579    0.579029
      9          1           0       -1.250054   -1.223139   -1.038906
     10          1           0       -0.937543   -1.971186    0.536432
     11          1           0       -2.357627   -0.173751    1.645010
     12          1           0       -2.568190    0.627689    0.046761
     13          1           0       -3.316182   -0.962677    0.340809
     14          8           0       -2.230958    1.811642   -0.599020
     15          1           0       -1.292079    1.829325   -0.344702
 ---------------------------------------------------------------------

 SCF Done:  E(UHF) =  -417.972882484     A.U. after   33 cycles
 E2 =    -0.1274788991D+01 EUMP2 =    -0.41924767147433D+03
 CCSD(T)= -0.41934961635D+03

 The electronic state is 2-A.
 Alpha  occ. eigenvalues --  -20.62822 -20.62768 -20.57336 -11.42659 -11.30416
 Alpha  occ. eigenvalues --  -11.27673 -11.26898 -11.23650  -1.49475  -1.39656
 Alpha  occ. eigenvalues --   -1.39076  -1.08987  -1.05357  -0.93070  -0.84630
 Alpha  occ. eigenvalues --   -0.78485  -0.73674  -0.72531  -0.70567  -0.69514
 Alpha  occ. eigenvalues --   -0.66803  -0.60956  -0.59022  -0.56237  -0.55746
 Alpha  occ. eigenvalues --   -0.53484  -0.49638  -0.49141  -0.45720  -0.43563
 Alpha  occ. eigenvalues --   -0.43524
 Alpha virt. eigenvalues --    0.03465   0.04526   0.06290   0.06609   0.07050
 Alpha virt. eigenvalues --    0.07614   0.09152   0.10010   0.10992   0.11517
 Alpha virt. eigenvalues --    0.12387   0.13794   0.14748   0.15506   0.16360

  Beta  occ. eigenvalues --  -20.62762 -20.58947 -20.57337 -11.42660 -11.30484
  Beta  occ. eigenvalues --  -11.27671 -11.26899 -11.22813  -1.49464  -1.39371
  Beta  occ. eigenvalues --   -1.25257  -1.08784  -1.04480  -0.92087  -0.83624
  Beta  occ. eigenvalues --   -0.78422  -0.73639  -0.70527  -0.70114  -0.65290
  Beta  occ. eigenvalues --   -0.60829  -0.58907  -0.56285  -0.53422  -0.51157
  Beta  occ. eigenvalues --   -0.50626  -0.49333  -0.47916  -0.43582  -0.43531
  Beta virt. eigenvalues --    0.03440   0.04503   0.05275   0.06323   0.07050
  Beta virt. eigenvalues --    0.07562   0.08312   0.09437   0.10477   0.11403
  Beta virt. eigenvalues --    0.11717   0.12542   0.13895   0.14785   0.15608

 Mulliken charges and spin densities:
               1          2
     1  C   -0.645214   0.000509
     2  H    0.221490  -0.000121
     3  C    1.245362  -0.000916
     4  C   -0.554224  -0.000644
     5  O   -0.293172  -0.000377
     6  O   -0.143805  -0.002248
     7  C   -0.076888  -0.028696
     8  C   -0.697367   0.307489
     9  H    0.214825   0.001335
    10  H    0.171578   0.009054
    11  H    0.167381  -0.018163
    12  H    0.233832  -0.108268
    13  H    0.155731  -0.011970
    14  O   -0.244616   0.878226
    15  H    0.245087  -0.025210
 Sum of Mulliken charges =  -0.00000   1.00000

 Dipole moment (field-independent basis, Debye):
    X=              0.6128    Y=              1.2787    Z=              1.3389  Tot=              1.9502
 Quadrupole moment (field-independent basis, Debye-Ang):
   XX=            -45.3227   YY=            -48.7243   ZZ=            -48.9277
   XY=             14.4602   XZ=              0.8590   YZ=             -0.8307

 289\PMP3-0=-419.2740455\MP4SDQ=-419.2968253\CCSD=-419.2960503\CCSD(T)=
 Normal termination of Gaussian 16 at Mon Apr 21 04:33:03 2025.
