 Gaussian 16, Revision A.03,
 Gaussian 16:  ES64L-G16RevA.03 25-Dec-2016

 --------------------------
 # ccsd(t)/6-311++g(d,p) sp
 --------------------------

 -------------------
 Title Card Required
 -------------------
 Symbolic Z-matrix:
 Charge =  0 Multiplicity = 2

                         Standard orientation:
 ---------------------------------------------------------------------
 Center     Atomic      Atomic             Coordinates (Angstroms)
 Number     Number       Type             X           Y           Z
 ---------------------------------------------------------------------
      1          6           0        2.983561    1.308737    0.306134
      2          1           0        3.746697    2.035478    0.461083
      3          6           0        2.126972    0.489702    0.131043
      4          6           0        1.119329   -0.532485   -0.107507
      5          8           0        1.347863   -1.612617   -0.570167
      6          8           0       -0.095231   -0.102180    0.256902
      7          6           0       -1.175576   -1.031247    0.034258
      8          6           0       -2.419557   -0.389531    0.579228
      9          1           0       -1.249892   -1.224820   -1.037716
     10          1           0       -0.937639   -1.971280    0.538543
     11          1           0       -2.358081   -0.168006    1.643981
     12          1           0       -2.558213    0.643931    0.036901
     13          1           0       -3.318061   -0.956465    0.337470
     14          8           0       -2.232574    1.807377   -0.598354
     15          1           0       -1.293647    1.829463   -0.346245
 ---------------------------------------------------------------------

 SCF Done:  E(UHF) =  -417.970454683     A.U. after   32 cycles
 E2 =    -0.1276643927D+01 EUMP2 =    -0.41924709860995D+03
 CCSD(T)= -0.41934918496D+03

 The electronic state is 2-A.
 Alpha  occ. eigenvalues --  -20.62795 -20.62617 -20.57355 -11.42679 -11.30483
 Alpha  occ. eigenvalues --  -11.27682 -11.26906 -11.23962  -1.49503  -1.39613
 Alpha  occ. eigenvalues --   -1.39001  -1.09021  -1.05422  -0.93103  -0.84658
 Alpha  occ. eigenvalues --   -0.78518  -0.73684  -0.72599  -0.70599  -0.69533
 Alpha  occ. eigenvalues --   -0.66590  -0.61038  -0.59051  -0.56366  -0.55572
 Alpha  occ. eigenvalues --   -0.53583  -0.49631  -0.49113  -0.45315  -0.43568
 Alpha  occ. eigenvalues --   -0.43526
 Alpha virt. eigenvalues --    0.03468   0.04506   0.06273   0.06626   0.07035
 Alpha virt. eigenvalues --    0.07604   0.09145   0.10009   0.11014   0.11504
 Alpha virt. eigenvalues --    0.12384   0.13785   0.14737   0.15488   0.16363

  Beta  occ. eigenvalues --  -20.62788 -20.58806 -20.57357 -11.42680 -11.30560
  Beta  occ. eigenvalues --  -11.27680 -11.26907 -11.23029  -1.49491  -1.39396
  Beta  occ. eigenvalues --   -1.25442  -1.08794  -1.04458  -0.92026  -0.83566
  Beta  occ. eigenvalues --   -0.78449  -0.73648  -0.70556  -0.70121  -0.65288
  Beta  occ. eigenvalues --   -0.60878  -0.58865  -0.56387  -0.53503  -0.51008
  Beta  occ. eigenvalues --   -0.50467  -0.49332  -0.47903  -0.43590  -0.43540
  Beta virt. eigenvalues --    0.03442   0.04472   0.05213   0.06306   0.07035
  Beta virt. eigenvalues --    0.07549   0.08245   0.09407   0.10447   0.11422
  Beta virt. eigenvalues --    0.11699   0.12522   0.13881   0.14770   0.15602

 Mulliken charges and spin densities:
               1          2
     1  C   -0.645038   0.000524
     2  H    0.221582  -0.000122
     3  C    1.245265  -0.001045
     4  C   -0.554538  -0.000739
     5  O   -0.293218  -0.000396
     6  O   -0.143692  -0.002543
     7  C   -0.073715  -0.032059
     8  C   -0.698753   0.348508
     9  H    0.215325   0.001736
    10  H    0.171815   0.010576
    11  H    0.169202  -0.020244
    12  H    0.236053  -0.123549
    13  H    0.157671  -0.014233
    14  O   -0.252955   0.857751
    15  H    0.244997  -0.024167
 Sum of Mulliken charges =  -0.00000   1.00000

 Dipole moment (field-independent basis, Debye):
    X=              0.6149    Y=              1.2080    Z=              1.3737  Tot=              1.9299
 Quadrupole moment (field-independent basis, Debye-Ang):
   XX=            -45.2861   YY=            -48.8393   ZZ=            -48.9258
   XY=             14.6401   XZ=              0.7598   YZ=             -0.7799

 6\PMP3-0=-419.2732744\MP4SDQ=-419.2960585\CCSD=-419.2953948\CCSD(T)=-4
 Normal termination of Gaussian 16 at Mon Apr 21 00:08:26 2025.
