 Gaussian 16, Revision A.03,
 Gaussian 16:  ES64L-G16RevA.03 25-Dec-2016

 --------------------------
 # ccsd(t)/6-311++g(d,p) sp
 --------------------------

 -------------------
 Title Card Required
 -------------------
 Symbolic Z-matrix:
 Charge =  0 Multiplicity = 2

                         Standard orientation:
 ---------------------------------------------------------------------
 Center     Atomic      Atomic             Coordinates (Angstroms)
 Number     Number       Type             X           Y           Z
 ---------------------------------------------------------------------
      1          6           0        2.981428    1.312758    0.302649
      2          1           0        3.743480    2.041060    0.455810
      3          6           0        2.126028    0.492078    0.129519
      4          6           0        1.120257   -0.532133   -0.106689
      5          8           0        1.349841   -1.612746   -0.567581
      6          8           0       -0.095116   -0.103450    0.258059
      7          6           0       -1.173970   -1.032630    0.036752
      8          6           0       -2.416814   -0.395892    0.582579
      9          1           0       -1.249233   -1.230513   -1.034385
     10          1           0       -0.937234   -1.973109    0.544392
     11          1           0       -2.358674   -0.149170    1.641289
     12          1           0       -2.524668    0.747672   -0.021031
     13          1           0       -3.324189   -0.940209    0.327430
     14          8           0       -2.238516    1.792361   -0.594466
     15          1           0       -1.300728    1.829860   -0.350454
 ---------------------------------------------------------------------

 SCF Done:  E(UHF) =  -417.959949736     A.U. after   30 cycles
 E2 =    -0.1289416799D+01 EUMP2 =    -0.41924936653503D+03
 CCSD(T)= -0.41934948031D+03

 The electronic state is 2-A.
 Alpha  occ. eigenvalues --  -20.63145 -20.59741 -20.57594 -11.42924 -11.31364
 Alpha  occ. eigenvalues --  -11.27774 -11.26976 -11.26605  -1.49839  -1.39734
 Alpha  occ. eigenvalues --   -1.36551  -1.09527  -1.06243  -0.93735  -0.85212
 Alpha  occ. eigenvalues --   -0.78909  -0.73787  -0.72430  -0.70951  -0.69411
 Alpha  occ. eigenvalues --   -0.63664  -0.61953  -0.59724  -0.57481  -0.54906
 Alpha  occ. eigenvalues --   -0.52664  -0.49870  -0.49344  -0.43840  -0.43639
 Alpha  occ. eigenvalues --   -0.43126
 Alpha virt. eigenvalues --    0.03500   0.04229   0.06064   0.06709   0.06956
 Alpha virt. eigenvalues --    0.07504   0.09142   0.09998   0.11168   0.11381
 Alpha virt. eigenvalues --    0.12336   0.13661   0.14605   0.15354   0.16347

  Beta  occ. eigenvalues --  -20.63127 -20.57595 -20.56711 -11.42928 -11.31509
  Beta  occ. eigenvalues --  -11.27773 -11.26976 -11.24922  -1.49812  -1.39690
  Beta  occ. eigenvalues --   -1.26325  -1.08959  -1.04618  -0.91862  -0.83475
  Beta  occ. eigenvalues --   -0.78781  -0.73754  -0.70960  -0.70327  -0.64486
  Beta  occ. eigenvalues --   -0.61519  -0.59022  -0.57355  -0.54380  -0.50305
  Beta  occ. eigenvalues --   -0.49588  -0.48991  -0.48358  -0.43673  -0.43626
  Beta virt. eigenvalues --    0.03489   0.03987   0.04891   0.06101   0.06811
  Beta virt. eigenvalues --    0.07437   0.07801   0.09287   0.10298   0.11388
  Beta virt. eigenvalues --    0.11699   0.12402   0.13745   0.14671   0.15558

 Mulliken charges and spin densities:
               1          2
     1  C   -0.642287   0.000200
     2  H    0.222424  -0.000099
     3  C    1.245217  -0.001131
     4  C   -0.555505  -0.001479
     5  O   -0.293738  -0.000349
     6  O   -0.138302  -0.003487
     7  C   -0.064477  -0.061042
     8  C   -0.688584   0.680976
     9  H    0.222470   0.005266
    10  H    0.178133   0.025151
    11  H    0.185716  -0.036399
    12  H    0.273171  -0.202254
    13  H    0.172822  -0.032068
    14  O   -0.357067   0.642438
    15  H    0.240007  -0.015726
 Sum of Mulliken charges =  -0.00000   1.00000

 Dipole moment (field-independent basis, Debye):
    X=              0.6144    Y=              0.2655    Z=              1.8450  Tot=              1.9627
 Quadrupole moment (field-independent basis, Debye-Ang):
   XX=            -44.6376   YY=            -50.3944   ZZ=            -48.9228
   XY=             16.8448   XZ=             -0.4138   YZ=             -0.1358

 7\PMP3-0=-419.2730771\MP4SDQ=-419.2958291\CCSD=-419.2946521\CCSD(T)=-4
 Normal termination of Gaussian 16 at Mon Apr 21 06:19:16 2025.
