 Gaussian 16, Revision A.03,
 Gaussian 16:  ES64L-G16RevA.03 25-Dec-2016

 --------------------------
 # ccsd(t)/6-311++g(d,p) sp
 --------------------------

 -------------------
 Title Card Required
 -------------------
 Symbolic Z-matrix:
 Charge =  0 Multiplicity = 2

                         Standard orientation:
 ---------------------------------------------------------------------
 Center     Atomic      Atomic             Coordinates (Angstroms)
 Number     Number       Type             X           Y           Z
 ---------------------------------------------------------------------
      1          6           0        2.979320    1.316278    0.301165
      2          1           0        3.740215    2.045981    0.453596
      3          6           0        2.125165    0.494150    0.128809
      4          6           0        1.121230   -0.531769   -0.106527
      5          8           0        1.351990   -1.612169   -0.567252
      6          8           0       -0.094834   -0.105161    0.259124
      7          6           0       -1.172483   -1.034358    0.037899
      8          6           0       -2.414370   -0.409472    0.588744
      9          1           0       -1.248156   -1.235087   -1.032856
     10          1           0       -0.935630   -1.976086    0.546949
     11          1           0       -2.358873   -0.133773    1.639265
     12          1           0       -2.503321    0.881504   -0.094845
     13          1           0       -3.329240   -0.930465    0.318985
     14          8           0       -2.243437    1.780492   -0.589047
     15          1           0       -1.307918    1.833655   -0.354234
 ---------------------------------------------------------------------

 SCF Done:  E(UHF) =  -417.973077843     A.U. after   27 cycles
 E2 =    -0.1293005433D+01 EUMP2 =    -0.41926608327685D+03
 CCSD(T)= -0.41936064612D+03

 The electronic state is 2-A.
 Alpha  occ. eigenvalues --  -20.63514 -20.57847 -20.55299 -11.43176 -11.32243
 Alpha  occ. eigenvalues --  -11.28067 -11.27863 -11.27043  -1.50191  -1.40044
 Alpha  occ. eigenvalues --   -1.33731  -1.10209  -1.06877  -0.94365  -0.85785
 Alpha  occ. eigenvalues --   -0.79330  -0.73898  -0.72539  -0.71306  -0.69348
 Alpha  occ. eigenvalues --   -0.63017  -0.61116  -0.60106  -0.57642  -0.55806
 Alpha  occ. eigenvalues --   -0.50140  -0.49839  -0.49098  -0.43797  -0.43720
 Alpha  occ. eigenvalues --   -0.41613
 Alpha virt. eigenvalues --    0.03492   0.03971   0.05823   0.06481   0.07078
 Alpha virt. eigenvalues --    0.07402   0.09216   0.09983   0.11244   0.11291
 Alpha virt. eigenvalues --    0.12272   0.13511   0.14449   0.15255   0.16270

  Beta  occ. eigenvalues --  -20.63480 -20.57842 -20.53892 -11.43183 -11.32452
  Beta  occ. eigenvalues --  -11.27864 -11.27041 -11.25723  -1.50139  -1.39987
  Beta  occ. eigenvalues --   -1.29268  -1.09125  -1.04768  -0.91701  -0.83329
  Beta  occ. eigenvalues --   -0.79111  -0.73855  -0.71356  -0.70566  -0.65288
  Beta  occ. eigenvalues --   -0.62141  -0.59800  -0.57921  -0.55223  -0.53205
  Beta  occ. eigenvalues --   -0.49985  -0.49326  -0.47549  -0.43752  -0.43710
  Beta virt. eigenvalues --    0.03512   0.03816   0.05317   0.05878   0.06573
  Beta virt. eigenvalues --    0.07370   0.07687   0.09278   0.10237   0.11261
  Beta virt. eigenvalues --    0.11937   0.12317   0.13607   0.14654   0.15557

 Mulliken charges and spin densities:
               1          2
     1  C   -0.639466  -0.000877
     2  H    0.223313  -0.000003
     3  C    1.244874   0.000407
     4  C   -0.554091  -0.001652
     5  O   -0.294189   0.000151
     6  O   -0.131012  -0.000210
     7  C   -0.072299  -0.096796
     8  C   -0.680145   1.002401
     9  H    0.230173   0.009787
    10  H    0.187273   0.043562
    11  H    0.200474  -0.053607
    12  H    0.372067  -0.103939
    13  H    0.183683  -0.052697
    14  O   -0.503540   0.258224
    15  H    0.232886  -0.004751
 Sum of Mulliken charges =  -0.00000   1.00000

 Dipole moment (field-independent basis, Debye):
    X=              0.5743    Y=             -0.6799    Z=              2.3234  Tot=              2.4880
 Quadrupole moment (field-independent basis, Debye-Ang):
   XX=            -43.7470   YY=            -52.2234   ZZ=            -48.9908
   XY=             18.9197   XZ=             -1.5376   YZ=              0.6894

 403\PMP3-0=-419.2848107\MP4SDQ=-419.3089603\CCSD=-419.3063834\CCSD(T)=
 Normal termination of Gaussian 16 at Mon Apr 21 16:48:20 2025.
