 Gaussian 16, Revision A.03,
 Gaussian 16:  ES64L-G16RevA.03 25-Dec-2016

 --------------------------
 # ccsd(t)/6-311++g(d,p) sp
 --------------------------

 -------------------
 Title Card Required
 -------------------
 Symbolic Z-matrix:
 Charge =  0 Multiplicity = 2

                         Standard orientation:
 ---------------------------------------------------------------------
 Center     Atomic      Atomic             Coordinates (Angstroms)
 Number     Number       Type             X           Y           Z
 ---------------------------------------------------------------------
      1          6           0        2.987884    1.298801    0.318861
      2          1           0        3.753596    2.021320    0.480453
      3          6           0        2.128930    0.483803    0.136456
      4          6           0        1.117563   -0.533109   -0.111088
      5          8           0        1.344112   -1.610411   -0.581573
      6          8           0       -0.095787   -0.100821    0.254106
      7          6           0       -1.178965   -1.028316    0.024624
      8          6           0       -2.428158   -0.401553    0.582560
      9          1           0       -1.252156   -1.209475   -1.049625
     10          1           0       -0.936323   -1.971809    0.517400
     11          1           0       -2.352153   -0.214452    1.653522
     12          1           0       -2.644384    0.564616    0.087385
     13          1           0       -3.299754   -1.022519    0.370789
     14          8           0       -2.217151    1.847445   -0.602242
     15          1           0       -1.281734    1.824864   -0.330724
 ---------------------------------------------------------------------

 SCF Done:  E(UHF) =  -417.983006559     A.U. after   28 cycles
 E2 =    -0.1268210965D+01 EUMP2 =    -0.41925121752392D+03
 CCSD(T)= -0.41935228674D+03

 The electronic state is 2-A.
 Alpha  occ. eigenvalues --  -20.63266 -20.62731 -20.57309 -11.42633 -11.30329
 Alpha  occ. eigenvalues --  -11.27650 -11.26882 -11.22907  -1.49409  -1.39650
 Alpha  occ. eigenvalues --   -1.39098  -1.08899  -1.05198  -0.93017  -0.84543
 Alpha  occ. eigenvalues --   -0.78416  -0.73643  -0.71926  -0.70483  -0.69340
 Alpha  occ. eigenvalues --   -0.67200  -0.60752  -0.59086  -0.56081  -0.55856
 Alpha  occ. eigenvalues --   -0.53228  -0.50149  -0.49324  -0.47112  -0.43555
 Alpha  occ. eigenvalues --   -0.43511
 Alpha virt. eigenvalues --    0.03466   0.04547   0.06331   0.06591   0.07077
 Alpha virt. eigenvalues --    0.07635   0.09188   0.10015   0.10885   0.11565
 Alpha virt. eigenvalues --    0.12381   0.13812   0.14770   0.15598   0.16348

  Beta  occ. eigenvalues --  -20.62729 -20.59229 -20.57311 -11.42634 -11.30369
  Beta  occ. eigenvalues --  -11.27649 -11.26883 -11.22394  -1.49404  -1.39318
  Beta  occ. eigenvalues --   -1.24378  -1.08772  -1.04630  -0.92375  -0.83871
  Beta  occ. eigenvalues --   -0.78368  -0.73619  -0.70481  -0.70120  -0.65006
  Beta  occ. eigenvalues --   -0.60745  -0.59209  -0.55975  -0.53209  -0.51931
  Beta  occ. eigenvalues --   -0.50930  -0.49344  -0.47983  -0.43563  -0.43511
  Beta virt. eigenvalues --    0.03445   0.04538   0.05510   0.06358   0.07076
  Beta virt. eigenvalues --    0.07595   0.08490   0.09571   0.10612   0.11250
  Beta virt. eigenvalues --    0.11760   0.12597   0.13930   0.14850   0.15664

 Mulliken charges and spin densities:
               1          2
     1  C   -0.645632   0.000278
     2  H    0.221293  -0.000116
     3  C    1.247309  -0.000178
     4  C   -0.553250  -0.000456
     5  O   -0.292598  -0.000270
     6  O   -0.142715  -0.001192
     7  C   -0.092361  -0.018427
     8  C   -0.683808   0.179419
     9  H    0.214786   0.000090
    10  H    0.172909   0.004691
    11  H    0.163515  -0.011727
    12  H    0.219827  -0.060251
    13  H    0.149351  -0.004551
    14  O   -0.223243   0.941467
    15  H    0.244617  -0.028777
 Sum of Mulliken charges =  -0.00000   1.00000

 Dipole moment (field-independent basis, Debye):
    X=              0.6045    Y=              1.3681    Z=              1.2958  Tot=              1.9790
 Quadrupole moment (field-independent basis, Debye-Ang):
   XX=            -45.3204   YY=            -48.5978   ZZ=            -48.9568
   XY=             14.1414   XZ=              1.0939   YZ=             -0.9222

 MP3-0=-419.2783086\MP4SDQ=-419.3009447\CCSD=-419.2995952\CCSD(T)=-419.
 Normal termination of Gaussian 16 at Sun Apr 20 08:34:48 2025.
