 Gaussian 16, Revision A.03,
 Gaussian 16:  ES64L-G16RevA.03 25-Dec-2016

 --------------------------
 # ccsd(t)/6-311++g(d,p) sp
 --------------------------

 -------------------
 Title Card Required
 -------------------
 Symbolic Z-matrix:
 Charge =  0 Multiplicity = 2

                         Standard orientation:
 ---------------------------------------------------------------------
 Center     Atomic      Atomic             Coordinates (Angstroms)
 Number     Number       Type             X           Y           Z
 ---------------------------------------------------------------------
      1          6           0        2.982637    1.310550    0.304318
      2          1           0        3.745268    2.038047    0.458321
      3          6           0        2.126553    0.490773    0.130260
      4          6           0        1.119731   -0.532339   -0.107052
      5          8           0        1.348688   -1.612786   -0.568700
      6          8           0       -0.095202   -0.102666    0.257426
      7          6           0       -1.174860   -1.031766    0.035540
      8          6           0       -2.418274   -0.391216    0.580252
      9          1           0       -1.249662   -1.227479   -1.036002
     10          1           0       -0.937673   -1.971828    0.541586
     11          1           0       -2.358447   -0.158706    1.642491
     12          1           0       -2.541990    0.682844    0.014911
     13          1           0       -3.321030   -0.947816    0.332598
     14          8           0       -2.235303    1.800393   -0.596906
     15          1           0       -1.296658    1.829395   -0.348364
 ---------------------------------------------------------------------

 SCF Done:  E(UHF) =  -417.965140135     A.U. after   31 cycles
 E2 =    -0.1281320412D+01 EUMP2 =    -0.41924646054687D+03
 CCSD(T)= -0.41934852660D+03

 The electronic state is 2-A.
 Alpha  occ. eigenvalues --  -20.62889 -20.61901 -20.57420 -11.42746 -11.30719
 Alpha  occ. eigenvalues --  -11.27710 -11.26927 -11.24843  -1.49596  -1.39573
 Alpha  occ. eigenvalues --   -1.38511  -1.09141  -1.05648  -0.93248  -0.84780
 Alpha  occ. eigenvalues --   -0.78625  -0.73714  -0.72630  -0.70701  -0.69552
 Alpha  occ. eigenvalues --   -0.65828  -0.61296  -0.59200  -0.56741  -0.54987
 Alpha  occ. eigenvalues --   -0.53828  -0.49680  -0.49127  -0.44468  -0.43584
 Alpha  occ. eigenvalues --   -0.43504
 Alpha virt. eigenvalues --    0.03478   0.04435   0.06219   0.06680   0.06988
 Alpha virt. eigenvalues --    0.07575   0.09133   0.10007   0.11065   0.11468
 Alpha virt. eigenvalues --    0.12373   0.13753   0.14703   0.15443   0.16366

  Beta  occ. eigenvalues --  -20.62879 -20.58296 -20.57421 -11.42748 -11.30820
  Beta  occ. eigenvalues --  -11.27708 -11.26927 -11.23652  -1.49579  -1.39477
  Beta  occ. eigenvalues --   -1.25817  -1.08833  -1.04455  -0.91917  -0.83468
  Beta  occ. eigenvalues --   -0.78539  -0.73678  -0.70662  -0.70163  -0.65146
  Beta  occ. eigenvalues --   -0.61047  -0.58834  -0.56687  -0.53752  -0.50602
  Beta  occ. eigenvalues --   -0.50148  -0.49320  -0.47918  -0.43614  -0.43565
  Beta virt. eigenvalues --    0.03452   0.04348   0.05068   0.06251   0.06978
  Beta virt. eigenvalues --    0.07512   0.08069   0.09345   0.10383   0.11444
  Beta virt. eigenvalues --    0.11660   0.12476   0.13842   0.14735   0.15587

 Mulliken charges and spin densities:
               1          2
     1  C   -0.644279   0.000506
     2  H    0.221844  -0.000120
     3  C    1.245030  -0.001262
     4  C   -0.555099  -0.001000
     5  O   -0.293345  -0.000425
     6  O   -0.142630  -0.003181
     7  C   -0.067979  -0.041445
     8  C   -0.698311   0.460499
     9  H    0.217207   0.002862
    10  H    0.173243   0.015016
    11  H    0.174470  -0.025851
    12  H    0.243115  -0.161402
    13  H    0.162714  -0.020292
    14  O   -0.280142   0.797520
    15  H    0.244163  -0.021424
 Sum of Mulliken charges =  -0.00000   1.00000

 Dipole moment (field-independent basis, Debye):
    X=              0.6182    Y=              0.9569    Z=              1.4986  Tot=              1.8825
 Quadrupole moment (field-independent basis, Debye-Ang):
   XX=            -45.1313   YY=            -49.2480   ZZ=            -48.9237
   XY=             15.2456   XZ=              0.4357   YZ=             -0.6082

 PMP3-0=-419.2720688\MP4SDQ=-419.2948023\CCSD=-419.294245\CCSD(T)=-419.
 Normal termination of Gaussian 16 at Mon Apr 21 03:41:53 2025.
